# vtk DataFile Version 1.0
polyhedron
ASCII
DATASET POLYDATA
POINTS 20 float
8.979214E+02		2.423612E+02		1.318951E+01
8.979214E+02		2.654552E+02		1.318951E+01
9.210154E+02		2.654552E+02		1.318951E+01
9.210154E+02		2.423612E+02		1.318951E+01
8.979214E+02		2.423612E+02		3.628352E+01
8.979214E+02		2.654552E+02		3.628352E+01
9.210154E+02		2.654552E+02		3.628352E+01
9.210154E+02		2.423612E+02		3.628352E+01
9.094684E+02		2.467718E+02		6.053065E+00
9.094684E+02		2.467718E+02		4.341996E+01
9.094684E+02		2.610447E+02		6.053065E+00
9.094684E+02		2.610447E+02		4.341996E+01
8.907850E+02		2.539082E+02		1.760007E+01
8.907850E+02		2.539082E+02		3.187295E+01
9.281519E+02		2.539082E+02		1.760007E+01
9.281519E+02		2.539082E+02		3.187295E+01
9.023320E+02		2.352248E+02		2.473651E+01
9.023320E+02		2.725917E+02		2.473651E+01
9.166049E+02		2.352248E+02		2.473651E+01
9.166049E+02		2.725917E+02		2.473651E+01
POLYGONS 36 144
3		8		0		1
3		8		3		0
3		9		4		7
3		10		19		2
3		10		8		1
3		11		5		4
3		11		6		19
3		11		4		9
3		12		1		0
3		12		0		4
3		13		5		1
3		13		4		5
3		13		1		12
3		13		12		4
3		14		2		19
3		14		3		8
3		14		10		2
3		14		8		10
3		15		19		6
3		15		9		7
3		15		6		11
3		15		11		9
3		15		14		19
3		16		0		3
3		16		4		0
3		17		1		5
3		17		10		1
3		17		19		10
3		17		5		11
3		17		11		19
3		18		7		4
3		18		3		14
3		18		15		7
3		18		14		15
3		18		16		3
3		18		4		16
POINT_DATA 20
scalars NodeType integer
LOOKUP_TABLE default
1
1
1
1
1
1
1
1
1
1
1
1
1
1
1
1
1
1
1
1
CELL_DATA 36
SCALARS SlipSystem integer
LOOKUP_TABLE default
1
1
1
1
1
1
1
1
1
1
1
1
1
1
1
1
1
1
1
1
1
1
1
1
1
1
1
1
1
1
1
1
1
1
1
1
