# vtk DataFile Version 1.0
polyhedron
ASCII
DATASET POLYDATA
POINTS 20 float
-4.677603E+02		7.702397E+02		-4.060035E+00
-4.677603E+02		7.933337E+02		-4.060035E+00
-4.446663E+02		7.933337E+02		-4.060035E+00
-4.446663E+02		7.702397E+02		-4.060035E+00
-4.677603E+02		7.702397E+02		1.903398E+01
-4.677603E+02		7.933337E+02		1.903398E+01
-4.446663E+02		7.933337E+02		1.903398E+01
-4.446663E+02		7.702397E+02		1.903398E+01
-4.562133E+02		7.746503E+02		-1.119648E+01
-4.562133E+02		7.746503E+02		2.617042E+01
-4.562133E+02		7.889232E+02		-1.119648E+01
-4.562133E+02		7.889232E+02		2.617042E+01
-4.748968E+02		7.817867E+02		3.505287E-01
-4.748968E+02		7.817867E+02		1.462341E+01
-4.375299E+02		7.817867E+02		3.505287E-01
-4.375299E+02		7.817867E+02		1.462341E+01
-4.633498E+02		7.631033E+02		7.486970E+00
-4.633498E+02		8.004702E+02		7.486970E+00
-4.490769E+02		7.631033E+02		7.486970E+00
-4.490769E+02		8.004702E+02		7.486970E+00
POLYGONS 36 144
3		6		2		19
3		8		3		0
3		9		4		7
3		9		7		6
3		10		19		2
3		10		2		3
3		10		3		8
3		11		6		19
3		11		9		6
3		12		8		0
3		12		1		10
3		12		10		8
3		13		4		9
3		13		11		5
3		13		9		11
3		14		3		2
3		14		2		6
3		15		7		3
3		15		6		7
3		15		3		14
3		15		14		6
3		16		12		0
3		16		4		13
3		16		13		12
3		17		10		1
3		17		19		10
3		17		5		11
3		17		11		19
3		17		1		12
3		17		13		5
3		17		12		13
3		18		0		3
3		18		7		4
3		18		3		7
3		18		16		0
3		18		4		16
POINT_DATA 20
scalars NodeType integer
LOOKUP_TABLE default
1
1
1
1
1
1
1
1
1
1
1
1
1
1
1
1
1
1
1
1
CELL_DATA 36
SCALARS SlipSystem integer
LOOKUP_TABLE default
1
1
1
1
1
1
1
1
1
1
1
1
1
1
1
1
1
1
1
1
1
1
1
1
1
1
1
1
1
1
1
1
1
1
1
1
