# vtk DataFile Version 1.0
polyhedron
ASCII
DATASET POLYDATA
POINTS 20 float
-4.805042E+02		4.048766E+02		-1.746986E+01
-4.805042E+02		4.279706E+02		-1.746986E+01
-4.574102E+02		4.279706E+02		-1.746986E+01
-4.574102E+02		4.048766E+02		-1.746986E+01
-4.805042E+02		4.048766E+02		5.624153E+00
-4.805042E+02		4.279706E+02		5.624153E+00
-4.574102E+02		4.279706E+02		5.624153E+00
-4.574102E+02		4.048766E+02		5.624153E+00
-4.689572E+02		4.092872E+02		-2.460630E+01
-4.689572E+02		4.092872E+02		1.276059E+01
-4.689572E+02		4.235600E+02		-2.460630E+01
-4.689572E+02		4.235600E+02		1.276059E+01
-4.876406E+02		4.164236E+02		-1.305929E+01
-4.876406E+02		4.164236E+02		1.213589E+00
-4.502737E+02		4.164236E+02		-1.305929E+01
-4.502737E+02		4.164236E+02		1.213589E+00
-4.760936E+02		3.977401E+02		-5.922852E+00
-4.760936E+02		4.351070E+02		-5.922852E+00
-4.618207E+02		3.977401E+02		-5.922852E+00
-4.618207E+02		4.351070E+02		-5.922852E+00
POLYGONS 36 144
3		6		19		5
3		8		0		1
3		8		3		0
3		9		5		4
3		9		4		7
3		10		1		2
3		10		8		1
3		11		6		5
3		11		5		9
3		12		1		0
3		12		0		4
3		12		5		1
3		13		4		5
3		13		12		4
3		13		5		12
3		14		2		19
3		14		3		8
3		14		10		2
3		14		8		10
3		15		19		6
3		15		9		7
3		15		6		11
3		15		11		9
3		15		14		19
3		16		4		0
3		16		7		4
3		17		19		2
3		17		2		1
3		17		1		5
3		17		5		19
3		18		0		3
3		18		3		14
3		18		15		7
3		18		14		15
3		18		16		0
3		18		7		16
POINT_DATA 20
scalars NodeType integer
LOOKUP_TABLE default
1
1
1
1
1
1
1
1
1
1
1
1
1
1
1
1
1
1
1
1
CELL_DATA 36
SCALARS SlipSystem integer
LOOKUP_TABLE default
1
1
1
1
1
1
1
1
1
1
1
1
1
1
1
1
1
1
1
1
1
1
1
1
1
1
1
1
1
1
1
1
1
1
1
1
