# vtk DataFile Version 1.0
polyhedron
ASCII
DATASET POLYDATA
POINTS 20 float
6.086360E+02		9.411008E+02		-1.053029E+01
6.086360E+02		9.641948E+02		-1.053029E+01
6.317300E+02		9.641948E+02		-1.053029E+01
6.317300E+02		9.411008E+02		-1.053029E+01
6.086360E+02		9.411008E+02		1.256372E+01
6.086360E+02		9.641948E+02		1.256372E+01
6.317300E+02		9.641948E+02		1.256372E+01
6.317300E+02		9.411008E+02		1.256372E+01
6.201830E+02		9.455113E+02		-1.766673E+01
6.201830E+02		9.455113E+02		1.970016E+01
6.201830E+02		9.597842E+02		-1.766673E+01
6.201830E+02		9.597842E+02		1.970016E+01
6.014995E+02		9.526478E+02		-6.119727E+00
6.014995E+02		9.526478E+02		8.153156E+00
6.388664E+02		9.526478E+02		-6.119727E+00
6.388664E+02		9.526478E+02		8.153156E+00
6.130465E+02		9.339643E+02		1.016714E+00
6.130465E+02		9.713312E+02		1.016714E+00
6.273194E+02		9.339643E+02		1.016714E+00
6.273194E+02		9.713312E+02		1.016714E+00
POLYGONS 36 144
3		2		1		19
3		6		2		19
3		9		7		6
3		10		1		2
3		10		2		3
3		10		3		8
3		11		6		5
3		11		9		6
3		12		8		0
3		12		1		10
3		12		10		8
3		13		4		9
3		13		11		5
3		13		9		11
3		14		3		2
3		14		2		6
3		15		7		3
3		15		6		7
3		15		3		14
3		15		14		6
3		16		0		8
3		16		9		4
3		16		12		0
3		16		4		13
3		16		13		12
3		17		19		1
3		17		6		19
3		17		5		6
3		17		1		12
3		17		13		5
3		17		12		13
3		18		3		7
3		18		8		3
3		18		7		9
3		18		16		8
3		18		9		16
POINT_DATA 20
scalars NodeType integer
LOOKUP_TABLE default
1
1
1
1
1
1
1
1
1
1
1
1
1
1
1
1
1
1
1
1
CELL_DATA 36
SCALARS SlipSystem integer
LOOKUP_TABLE default
1
1
1
1
1
1
1
1
1
1
1
1
1
1
1
1
1
1
1
1
1
1
1
1
1
1
1
1
1
1
1
1
1
1
1
1
