# vtk DataFile Version 1.0
polyhedron
ASCII
DATASET POLYDATA
POINTS 20 float
2.787683E+02		-8.093198E+02		-4.826606E+01
2.787683E+02		-7.862258E+02		-4.826606E+01
3.018623E+02		-7.862258E+02		-4.826606E+01
3.018623E+02		-8.093198E+02		-4.826606E+01
2.787683E+02		-8.093198E+02		-2.517205E+01
2.787683E+02		-7.862258E+02		-2.517205E+01
3.018623E+02		-7.862258E+02		-2.517205E+01
3.018623E+02		-8.093198E+02		-2.517205E+01
2.903153E+02		-8.049092E+02		-5.540250E+01
2.903153E+02		-8.049092E+02		-1.803561E+01
2.903153E+02		-7.906364E+02		-5.540250E+01
2.903153E+02		-7.906364E+02		-1.803561E+01
2.716319E+02		-7.977728E+02		-4.385550E+01
2.716319E+02		-7.977728E+02		-2.958261E+01
3.089988E+02		-7.977728E+02		-4.385550E+01
3.089988E+02		-7.977728E+02		-2.958261E+01
2.831789E+02		-8.164563E+02		-3.671906E+01
2.831789E+02		-7.790894E+02		-3.671906E+01
2.974518E+02		-8.164563E+02		-3.671906E+01
2.974518E+02		-7.790894E+02		-3.671906E+01
POLYGONS 36 144
3		2		1		19
3		9		5		4
3		9		4		7
3		10		0		1
3		10		1		2
3		10		8		0
3		11		6		5
3		11		5		9
3		12		1		0
3		13		0		4
3		13		5		1
3		13		4		5
3		13		12		0
3		13		1		12
3		14		2		19
3		14		3		8
3		14		10		2
3		14		8		10
3		15		19		6
3		15		9		7
3		15		6		11
3		15		11		9
3		15		14		19
3		16		4		0
3		16		7		4
3		16		0		8
3		17		19		1
3		17		1		5
3		17		6		19
3		17		5		6
3		18		8		3
3		18		3		14
3		18		15		7
3		18		14		15
3		18		7		16
3		18		16		8
POINT_DATA 20
scalars NodeType integer
LOOKUP_TABLE default
1
1
1
1
1
1
1
1
1
1
1
1
1
1
1
1
1
1
1
1
CELL_DATA 36
SCALARS SlipSystem integer
LOOKUP_TABLE default
1
1
1
1
1
1
1
1
1
1
1
1
1
1
1
1
1
1
1
1
1
1
1
1
1
1
1
1
1
1
1
1
1
1
1
1
