# vtk DataFile Version 1.0
polyhedron
ASCII
DATASET POLYDATA
POINTS 20 float
2.192615E+02		7.784023E+02		3.234818E+01
2.192615E+02		8.014963E+02		3.234818E+01
2.423555E+02		8.014963E+02		3.234818E+01
2.423555E+02		7.784023E+02		3.234818E+01
2.192615E+02		7.784023E+02		5.544219E+01
2.192615E+02		8.014963E+02		5.544219E+01
2.423555E+02		8.014963E+02		5.544219E+01
2.423555E+02		7.784023E+02		5.544219E+01
2.308085E+02		7.828129E+02		2.521174E+01
2.308085E+02		7.828129E+02		6.257863E+01
2.308085E+02		7.970858E+02		2.521174E+01
2.308085E+02		7.970858E+02		6.257863E+01
2.121250E+02		7.899493E+02		3.675875E+01
2.121250E+02		7.899493E+02		5.103163E+01
2.494919E+02		7.899493E+02		3.675875E+01
2.494919E+02		7.899493E+02		5.103163E+01
2.236720E+02		7.712659E+02		4.389519E+01
2.236720E+02		8.086328E+02		4.389519E+01
2.379449E+02		7.712659E+02		4.389519E+01
2.379449E+02		8.086328E+02		4.389519E+01
POLYGONS 36 144
3		6		2		19
3		8		3		0
3		8		2		3
3		9		4		7
3		10		19		2
3		10		2		8
3		11		6		19
3		11		7		6
3		11		9		7
3		12		8		0
3		12		1		10
3		12		10		8
3		13		4		9
3		13		11		5
3		13		9		11
3		14		3		2
3		14		2		6
3		15		7		3
3		15		6		7
3		15		3		14
3		15		14		6
3		16		0		3
3		16		12		0
3		16		4		13
3		16		13		12
3		17		10		1
3		17		19		10
3		17		5		11
3		17		11		19
3		17		1		12
3		17		13		5
3		17		12		13
3		18		7		4
3		18		3		7
3		18		16		3
3		18		4		16
POINT_DATA 20
scalars NodeType integer
LOOKUP_TABLE default
1
1
1
1
1
1
1
1
1
1
1
1
1
1
1
1
1
1
1
1
CELL_DATA 36
SCALARS SlipSystem integer
LOOKUP_TABLE default
1
1
1
1
1
1
1
1
1
1
1
1
1
1
1
1
1
1
1
1
1
1
1
1
1
1
1
1
1
1
1
1
1
1
1
1
