# vtk DataFile Version 1.0
polyhedron
ASCII
DATASET POLYDATA
POINTS 20 float
-6.866417E+02		4.630982E+02		-5.501512E+01
-6.866417E+02		4.861923E+02		-5.501512E+01
-6.635477E+02		4.861923E+02		-5.501512E+01
-6.635477E+02		4.630982E+02		-5.501512E+01
-6.866417E+02		4.630982E+02		-3.192111E+01
-6.866417E+02		4.861923E+02		-3.192111E+01
-6.635477E+02		4.861923E+02		-3.192111E+01
-6.635477E+02		4.630982E+02		-3.192111E+01
-6.750947E+02		4.675088E+02		-6.215156E+01
-6.750947E+02		4.675088E+02		-2.478467E+01
-6.750947E+02		4.817817E+02		-6.215156E+01
-6.750947E+02		4.817817E+02		-2.478467E+01
-6.937782E+02		4.746452E+02		-5.060455E+01
-6.937782E+02		4.746452E+02		-3.633167E+01
-6.564113E+02		4.746452E+02		-5.060455E+01
-6.564113E+02		4.746452E+02		-3.633167E+01
-6.822312E+02		4.559618E+02		-4.346811E+01
-6.822312E+02		4.933287E+02		-4.346811E+01
-6.679583E+02		4.559618E+02		-4.346811E+01
-6.679583E+02		4.933287E+02		-4.346811E+01
POLYGONS 36 144
3		2		1		19
3		6		2		19
3		8		3		0
3		9		4		7
3		9		7		6
3		10		1		2
3		10		2		3
3		10		3		8
3		11		6		5
3		11		9		6
3		12		8		0
3		12		1		10
3		12		10		8
3		13		4		9
3		13		11		5
3		13		9		11
3		14		3		2
3		14		7		3
3		15		2		6
3		15		6		7
3		15		14		2
3		15		7		14
3		16		0		3
3		16		7		4
3		16		12		0
3		16		4		13
3		16		13		12
3		17		19		1
3		17		6		19
3		17		5		6
3		17		1		12
3		17		13		5
3		17		12		13
3		18		3		7
3		18		16		3
3		18		7		16
POINT_DATA 20
scalars NodeType integer
LOOKUP_TABLE default
1
1
1
1
1
1
1
1
1
1
1
1
1
1
1
1
1
1
1
1
CELL_DATA 36
SCALARS SlipSystem integer
LOOKUP_TABLE default
1
1
1
1
1
1
1
1
1
1
1
1
1
1
1
1
1
1
1
1
1
1
1
1
1
1
1
1
1
1
1
1
1
1
1
1
