# vtk DataFile Version 1.0
polyhedron
ASCII
DATASET POLYDATA
POINTS 20 float
-6.856632E+02		-4.314196E+02		-2.660383E+01
-6.856632E+02		-4.083256E+02		-2.660383E+01
-6.625692E+02		-4.083256E+02		-2.660383E+01
-6.625692E+02		-4.314196E+02		-2.660383E+01
-6.856632E+02		-4.314196E+02		-3.509823E+00
-6.856632E+02		-4.083256E+02		-3.509823E+00
-6.625692E+02		-4.083256E+02		-3.509823E+00
-6.625692E+02		-4.314196E+02		-3.509823E+00
-6.741162E+02		-4.270090E+02		-3.374028E+01
-6.741162E+02		-4.270090E+02		3.626619E+00
-6.741162E+02		-4.127361E+02		-3.374028E+01
-6.741162E+02		-4.127361E+02		3.626619E+00
-6.927996E+02		-4.198726E+02		-2.219327E+01
-6.927996E+02		-4.198726E+02		-7.920387E+00
-6.554327E+02		-4.198726E+02		-2.219327E+01
-6.554327E+02		-4.198726E+02		-7.920387E+00
-6.812526E+02		-4.385560E+02		-1.505683E+01
-6.812526E+02		-4.011891E+02		-1.505683E+01
-6.669797E+02		-4.385560E+02		-1.505683E+01
-6.669797E+02		-4.011891E+02		-1.505683E+01
POLYGONS 36 144
3		8		0		1
3		8		3		0
3		9		5		4
3		9		4		7
3		10		19		2
3		10		8		1
3		11		6		19
3		11		5		9
3		12		1		0
3		13		0		4
3		13		5		1
3		13		4		5
3		13		12		0
3		13		1		12
3		14		2		19
3		14		3		8
3		14		10		2
3		14		8		10
3		15		19		6
3		15		9		7
3		15		6		11
3		15		11		9
3		15		14		19
3		16		4		0
3		16		7		4
3		17		1		5
3		17		10		1
3		17		19		10
3		17		5		11
3		17		11		19
3		18		0		3
3		18		3		14
3		18		15		7
3		18		14		15
3		18		16		0
3		18		7		16
POINT_DATA 20
scalars NodeType integer
LOOKUP_TABLE default
1
1
1
1
1
1
1
1
1
1
1
1
1
1
1
1
1
1
1
1
CELL_DATA 36
SCALARS SlipSystem integer
LOOKUP_TABLE default
1
1
1
1
1
1
1
1
1
1
1
1
1
1
1
1
1
1
1
1
1
1
1
1
1
1
1
1
1
1
1
1
1
1
1
1
