# vtk DataFile Version 1.0
polyhedron
ASCII
DATASET POLYDATA
POINTS 20 float
-9.522287E+01		-2.271751E+02		1.351316E+01
-9.522287E+01		-2.040811E+02		1.351316E+01
-7.212886E+01		-2.040811E+02		1.351316E+01
-7.212886E+01		-2.271751E+02		1.351316E+01
-9.522287E+01		-2.271751E+02		3.660717E+01
-9.522287E+01		-2.040811E+02		3.660717E+01
-7.212886E+01		-2.040811E+02		3.660717E+01
-7.212886E+01		-2.271751E+02		3.660717E+01
-8.367586E+01		-2.227646E+02		6.376719E+00
-8.367586E+01		-2.227646E+02		4.374361E+01
-8.367586E+01		-2.084917E+02		6.376719E+00
-8.367586E+01		-2.084917E+02		4.374361E+01
-1.023593E+02		-2.156281E+02		1.792372E+01
-1.023593E+02		-2.156281E+02		3.219661E+01
-6.499242E+01		-2.156281E+02		1.792372E+01
-6.499242E+01		-2.156281E+02		3.219661E+01
-9.081230E+01		-2.343116E+02		2.506017E+01
-9.081230E+01		-1.969447E+02		2.506017E+01
-7.653942E+01		-2.343116E+02		2.506017E+01
-7.653942E+01		-1.969447E+02		2.506017E+01
POLYGONS 36 144
3		6		2		19
3		6		19		5
3		9		5		4
3		10		0		1
3		10		1		2
3		10		8		0
3		11		6		5
3		11		5		9
3		12		1		0
3		12		5		1
3		13		4		5
3		13		5		12
3		14		3		8
3		14		10		2
3		14		8		10
3		15		2		6
3		15		9		7
3		15		6		11
3		15		11		9
3		15		14		2
3		16		0		8
3		16		9		4
3		16		12		0
3		16		4		13
3		16		13		12
3		17		19		2
3		17		2		1
3		17		1		5
3		17		5		19
3		18		8		3
3		18		7		9
3		18		3		14
3		18		15		7
3		18		14		15
3		18		16		8
3		18		9		16
POINT_DATA 20
scalars NodeType integer
LOOKUP_TABLE default
1
1
1
1
1
1
1
1
1
1
1
1
1
1
1
1
1
1
1
1
CELL_DATA 36
SCALARS SlipSystem integer
LOOKUP_TABLE default
1
1
1
1
1
1
1
1
1
1
1
1
1
1
1
1
1
1
1
1
1
1
1
1
1
1
1
1
1
1
1
1
1
1
1
1
