# vtk DataFile Version 1.0
polyhedron
ASCII
DATASET POLYDATA
POINTS 20 float
4.070661E+02		-1.568577E+02		-1.430826E+01
4.070661E+02		-1.337637E+02		-1.430826E+01
4.301601E+02		-1.337637E+02		-1.430826E+01
4.301601E+02		-1.568577E+02		-1.430826E+01
4.070661E+02		-1.568577E+02		8.785749E+00
4.070661E+02		-1.337637E+02		8.785749E+00
4.301601E+02		-1.337637E+02		8.785749E+00
4.301601E+02		-1.568577E+02		8.785749E+00
4.186131E+02		-1.524472E+02		-2.144470E+01
4.186131E+02		-1.524472E+02		1.592219E+01
4.186131E+02		-1.381743E+02		-2.144470E+01
4.186131E+02		-1.381743E+02		1.592219E+01
3.999297E+02		-1.453107E+02		-9.897698E+00
3.999297E+02		-1.453107E+02		4.375185E+00
4.372966E+02		-1.453107E+02		-9.897698E+00
4.372966E+02		-1.453107E+02		4.375185E+00
4.114767E+02		-1.639942E+02		-2.761257E+00
4.114767E+02		-1.266273E+02		-2.761257E+00
4.257496E+02		-1.639942E+02		-2.761257E+00
4.257496E+02		-1.266273E+02		-2.761257E+00
POLYGONS 36 144
3		2		1		19
3		6		19		5
3		9		5		4
3		10		0		1
3		10		1		2
3		10		8		0
3		11		6		5
3		11		5		9
3		12		1		0
3		12		0		4
3		13		5		1
3		13		4		5
3		13		1		12
3		13		12		4
3		14		2		19
3		14		3		8
3		14		10		2
3		14		8		10
3		15		19		6
3		15		9		7
3		15		6		11
3		15		11		9
3		15		14		19
3		16		4		0
3		16		0		8
3		16		9		4
3		17		19		1
3		17		1		5
3		17		5		19
3		18		8		3
3		18		7		9
3		18		3		14
3		18		15		7
3		18		14		15
3		18		16		8
3		18		9		16
POINT_DATA 20
scalars NodeType integer
LOOKUP_TABLE default
1
1
1
1
1
1
1
1
1
1
1
1
1
1
1
1
1
1
1
1
CELL_DATA 36
SCALARS SlipSystem integer
LOOKUP_TABLE default
1
1
1
1
1
1
1
1
1
1
1
1
1
1
1
1
1
1
1
1
1
1
1
1
1
1
1
1
1
1
1
1
1
1
1
1
