# vtk DataFile Version 1.0
polyhedron
ASCII
DATASET POLYDATA
POINTS 20 float
-3.740049E+02		2.258720E+02		-1.177443E+01
-3.740049E+02		2.489660E+02		-1.177443E+01
-3.509109E+02		2.489660E+02		-1.177443E+01
-3.509109E+02		2.258720E+02		-1.177443E+01
-3.740049E+02		2.258720E+02		1.131958E+01
-3.740049E+02		2.489660E+02		1.131958E+01
-3.509109E+02		2.489660E+02		1.131958E+01
-3.509109E+02		2.258720E+02		1.131958E+01
-3.624579E+02		2.302826E+02		-1.891087E+01
-3.624579E+02		2.302826E+02		1.845602E+01
-3.624579E+02		2.445555E+02		-1.891087E+01
-3.624579E+02		2.445555E+02		1.845602E+01
-3.811413E+02		2.374190E+02		-7.363866E+00
-3.811413E+02		2.374190E+02		6.909017E+00
-3.437744E+02		2.374190E+02		-7.363866E+00
-3.437744E+02		2.374190E+02		6.909017E+00
-3.695943E+02		2.187356E+02		-2.274244E-01
-3.695943E+02		2.561025E+02		-2.274244E-01
-3.553214E+02		2.187356E+02		-2.274244E-01
-3.553214E+02		2.561025E+02		-2.274244E-01
POLYGONS 36 144
3		8		3		0
3		9		5		4
3		9		4		7
3		10		0		1
3		10		19		2
3		10		8		0
3		11		6		19
3		11		5		9
3		12		1		0
3		12		0		4
3		13		5		1
3		13		4		5
3		13		1		12
3		13		12		4
3		14		2		19
3		14		3		8
3		14		10		2
3		14		8		10
3		15		19		6
3		15		9		7
3		15		6		11
3		15		11		9
3		15		14		19
3		16		0		3
3		16		4		0
3		17		1		5
3		17		10		1
3		17		19		10
3		17		5		11
3		17		11		19
3		18		7		4
3		18		3		14
3		18		15		7
3		18		14		15
3		18		16		3
3		18		4		16
POINT_DATA 20
scalars NodeType integer
LOOKUP_TABLE default
1
1
1
1
1
1
1
1
1
1
1
1
1
1
1
1
1
1
1
1
CELL_DATA 36
SCALARS SlipSystem integer
LOOKUP_TABLE default
1
1
1
1
1
1
1
1
1
1
1
1
1
1
1
1
1
1
1
1
1
1
1
1
1
1
1
1
1
1
1
1
1
1
1
1
