# vtk DataFile Version 1.0
polyhedron
ASCII
DATASET POLYDATA
POINTS 20 float
-5.546205E+02		1.279404E+01		2.258559E+01
-5.546205E+02		3.588805E+01		2.258559E+01
-5.315265E+02		3.588805E+01		2.258559E+01
-5.315265E+02		1.279404E+01		2.258559E+01
-5.546205E+02		1.279404E+01		4.567960E+01
-5.546205E+02		3.588805E+01		4.567960E+01
-5.315265E+02		3.588805E+01		4.567960E+01
-5.315265E+02		1.279404E+01		4.567960E+01
-5.430735E+02		1.720460E+01		1.544915E+01
-5.430735E+02		1.720460E+01		5.281604E+01
-5.430735E+02		3.147748E+01		1.544915E+01
-5.430735E+02		3.147748E+01		5.281604E+01
-5.617569E+02		2.434104E+01		2.699615E+01
-5.617569E+02		2.434104E+01		4.126904E+01
-5.243900E+02		2.434104E+01		2.699615E+01
-5.243900E+02		2.434104E+01		4.126904E+01
-5.502099E+02		5.657595E+00		3.413260E+01
-5.502099E+02		4.302449E+01		3.413260E+01
-5.359370E+02		5.657595E+00		3.413260E+01
-5.359370E+02		4.302449E+01		3.413260E+01
POLYGONS 36 144
3		2		1		19
3		6		19		5
3		8		0		1
3		10		1		2
3		10		8		1
3		11		5		4
3		11		6		5
3		11		4		9
3		12		1		0
3		13		0		4
3		13		5		1
3		13		4		5
3		13		12		0
3		13		1		12
3		14		2		19
3		14		3		8
3		14		10		2
3		14		8		10
3		15		19		6
3		15		9		7
3		15		6		11
3		15		11		9
3		15		14		19
3		16		4		0
3		16		0		8
3		16		9		4
3		17		19		1
3		17		1		5
3		17		5		19
3		18		8		3
3		18		7		9
3		18		3		14
3		18		15		7
3		18		14		15
3		18		16		8
3		18		9		16
POINT_DATA 20
scalars NodeType integer
LOOKUP_TABLE default
1
1
1
1
1
1
1
1
1
1
1
1
1
1
1
1
1
1
1
1
CELL_DATA 36
SCALARS SlipSystem integer
LOOKUP_TABLE default
1
1
1
1
1
1
1
1
1
1
1
1
1
1
1
1
1
1
1
1
1
1
1
1
1
1
1
1
1
1
1
1
1
1
1
1
