# vtk DataFile Version 1.0
polyhedron
ASCII
DATASET POLYDATA
POINTS 20 float
-5.080787E+02		5.966506E+02		1.172598E+01
-5.080787E+02		6.197446E+02		1.172598E+01
-4.849847E+02		6.197446E+02		1.172598E+01
-4.849847E+02		5.966506E+02		1.172598E+01
-5.080787E+02		5.966506E+02		3.481999E+01
-5.080787E+02		6.197446E+02		3.481999E+01
-4.849847E+02		6.197446E+02		3.481999E+01
-4.849847E+02		5.966506E+02		3.481999E+01
-4.965317E+02		6.010612E+02		4.589536E+00
-4.965317E+02		6.010612E+02		4.195643E+01
-4.965317E+02		6.153340E+02		4.589536E+00
-4.965317E+02		6.153340E+02		4.195643E+01
-5.152151E+02		6.081976E+02		1.613654E+01
-5.152151E+02		6.081976E+02		3.040943E+01
-4.778482E+02		6.081976E+02		1.613654E+01
-4.778482E+02		6.081976E+02		3.040943E+01
-5.036681E+02		5.895142E+02		2.327298E+01
-5.036681E+02		6.268810E+02		2.327298E+01
-4.893952E+02		5.895142E+02		2.327298E+01
-4.893952E+02		6.268810E+02		2.327298E+01
POLYGONS 36 144
3		8		0		1
3		8		3		0
3		9		4		7
3		10		1		2
3		10		8		1
3		11		5		4
3		11		6		5
3		11		4		9
3		12		1		0
3		12		0		4
3		13		5		1
3		13		4		5
3		13		1		12
3		13		12		4
3		14		2		19
3		14		3		8
3		14		10		2
3		14		8		10
3		15		19		6
3		15		9		7
3		15		6		11
3		15		11		9
3		15		14		19
3		16		0		3
3		16		4		0
3		16		7		4
3		17		19		2
3		17		2		1
3		17		1		5
3		17		6		19
3		17		5		6
3		18		3		14
3		18		15		7
3		18		14		15
3		18		16		3
3		18		7		16
POINT_DATA 20
scalars NodeType integer
LOOKUP_TABLE default
1
1
1
1
1
1
1
1
1
1
1
1
1
1
1
1
1
1
1
1
CELL_DATA 36
SCALARS SlipSystem integer
LOOKUP_TABLE default
1
1
1
1
1
1
1
1
1
1
1
1
1
1
1
1
1
1
1
1
1
1
1
1
1
1
1
1
1
1
1
1
1
1
1
1
