# vtk DataFile Version 1.0
polyhedron
ASCII
DATASET POLYDATA
POINTS 20 float
2.530461E+02		4.154349E+02		1.536507E+01
2.530461E+02		4.385289E+02		1.536507E+01
2.761401E+02		4.385289E+02		1.536507E+01
2.761401E+02		4.154349E+02		1.536507E+01
2.530461E+02		4.154349E+02		3.845908E+01
2.530461E+02		4.385289E+02		3.845908E+01
2.761401E+02		4.385289E+02		3.845908E+01
2.761401E+02		4.154349E+02		3.845908E+01
2.645931E+02		4.198455E+02		8.228631E+00
2.645931E+02		4.198455E+02		4.559552E+01
2.645931E+02		4.341183E+02		8.228631E+00
2.645931E+02		4.341183E+02		4.559552E+01
2.459096E+02		4.269819E+02		1.977564E+01
2.459096E+02		4.269819E+02		3.404852E+01
2.832765E+02		4.269819E+02		1.977564E+01
2.832765E+02		4.269819E+02		3.404852E+01
2.574566E+02		4.082985E+02		2.691208E+01
2.574566E+02		4.456653E+02		2.691208E+01
2.717295E+02		4.082985E+02		2.691208E+01
2.717295E+02		4.456653E+02		2.691208E+01
POLYGONS 36 144
3		6		2		19
3		8		3		0
3		9		4		7
3		9		7		6
3		10		1		2
3		10		2		3
3		10		3		8
3		11		6		5
3		11		9		6
3		12		8		0
3		12		1		10
3		12		10		8
3		13		4		9
3		13		11		5
3		13		9		11
3		14		3		2
3		14		2		6
3		14		7		3
3		15		6		7
3		15		14		6
3		15		7		14
3		16		0		3
3		16		12		0
3		16		4		13
3		16		13		12
3		17		19		2
3		17		2		1
3		17		6		19
3		17		5		6
3		17		1		12
3		17		13		5
3		17		12		13
3		18		7		4
3		18		3		7
3		18		16		3
3		18		4		16
POINT_DATA 20
scalars NodeType integer
LOOKUP_TABLE default
1
1
1
1
1
1
1
1
1
1
1
1
1
1
1
1
1
1
1
1
CELL_DATA 36
SCALARS SlipSystem integer
LOOKUP_TABLE default
1
1
1
1
1
1
1
1
1
1
1
1
1
1
1
1
1
1
1
1
1
1
1
1
1
1
1
1
1
1
1
1
1
1
1
1
