# vtk DataFile Version 1.0
polyhedron
ASCII
DATASET POLYDATA
POINTS 20 float
7.847222E+02		-9.369188E+01		-3.328980E+01
7.847222E+02		-7.059787E+01		-3.328980E+01
8.078162E+02		-7.059787E+01		-3.328980E+01
8.078162E+02		-9.369188E+01		-3.328980E+01
7.847222E+02		-9.369188E+01		-1.019579E+01
7.847222E+02		-7.059787E+01		-1.019579E+01
8.078162E+02		-7.059787E+01		-1.019579E+01
8.078162E+02		-9.369188E+01		-1.019579E+01
7.962692E+02		-8.928132E+01		-4.042624E+01
7.962692E+02		-8.928132E+01		-3.059349E+00
7.962692E+02		-7.500843E+01		-4.042624E+01
7.962692E+02		-7.500843E+01		-3.059349E+00
7.775857E+02		-8.214488E+01		-2.887924E+01
7.775857E+02		-8.214488E+01		-1.460635E+01
8.149526E+02		-8.214488E+01		-2.887924E+01
8.149526E+02		-8.214488E+01		-1.460635E+01
7.891327E+02		-1.008283E+02		-2.174280E+01
7.891327E+02		-6.346143E+01		-2.174280E+01
8.034056E+02		-1.008283E+02		-2.174280E+01
8.034056E+02		-6.346143E+01		-2.174280E+01
POLYGONS 36 144
3		6		2		19
3		8		3		0
3		9		4		7
3		9		7		6
3		10		19		2
3		10		2		3
3		10		3		8
3		11		6		19
3		11		9		6
3		12		8		0
3		12		1		10
3		12		10		8
3		13		4		9
3		13		11		5
3		13		9		11
3		14		3		2
3		14		2		6
3		15		7		3
3		15		6		7
3		15		3		14
3		15		14		6
3		16		12		0
3		16		4		13
3		16		13		12
3		17		10		1
3		17		19		10
3		17		5		11
3		17		11		19
3		17		1		12
3		17		13		5
3		17		12		13
3		18		0		3
3		18		7		4
3		18		3		7
3		18		16		0
3		18		4		16
POINT_DATA 20
scalars NodeType integer
LOOKUP_TABLE default
1
1
1
1
1
1
1
1
1
1
1
1
1
1
1
1
1
1
1
1
CELL_DATA 36
SCALARS SlipSystem integer
LOOKUP_TABLE default
1
1
1
1
1
1
1
1
1
1
1
1
1
1
1
1
1
1
1
1
1
1
1
1
1
1
1
1
1
1
1
1
1
1
1
1
