# vtk DataFile Version 1.0
polyhedron
ASCII
DATASET POLYDATA
POINTS 20 float
-7.915797E+02		5.204035E+01		-3.346670E+01
-7.915797E+02		7.513436E+01		-3.346670E+01
-7.684856E+02		7.513436E+01		-3.346670E+01
-7.684856E+02		5.204035E+01		-3.346670E+01
-7.915797E+02		5.204035E+01		-1.037269E+01
-7.915797E+02		7.513436E+01		-1.037269E+01
-7.684856E+02		7.513436E+01		-1.037269E+01
-7.684856E+02		5.204035E+01		-1.037269E+01
-7.800326E+02		5.645091E+01		-4.060314E+01
-7.800326E+02		5.645091E+01		-3.236246E+00
-7.800326E+02		7.072380E+01		-4.060314E+01
-7.800326E+02		7.072380E+01		-3.236246E+00
-7.987161E+02		6.358735E+01		-2.905614E+01
-7.987161E+02		6.358735E+01		-1.478325E+01
-7.613492E+02		6.358735E+01		-2.905614E+01
-7.613492E+02		6.358735E+01		-1.478325E+01
-7.871691E+02		4.490391E+01		-2.191969E+01
-7.871691E+02		8.227080E+01		-2.191969E+01
-7.728962E+02		4.490391E+01		-2.191969E+01
-7.728962E+02		8.227080E+01		-2.191969E+01
POLYGONS 36 144
3		2		1		19
3		6		2		19
3		8		3		0
3		9		5		4
3		10		0		1
3		10		1		2
3		10		2		3
3		10		8		0
3		10		3		8
3		11		6		19
3		11		7		6
3		11		5		9
3		11		9		7
3		12		1		0
3		13		0		4
3		13		5		1
3		13		4		5
3		13		12		0
3		13		1		12
3		14		3		2
3		14		2		6
3		14		7		3
3		15		6		7
3		15		14		6
3		15		7		14
3		16		4		0
3		16		9		4
3		17		19		1
3		17		1		5
3		17		5		11
3		17		11		19
3		18		0		3
3		18		3		7
3		18		7		9
3		18		16		0
3		18		9		16
POINT_DATA 20
scalars NodeType integer
LOOKUP_TABLE default
1
1
1
1
1
1
1
1
1
1
1
1
1
1
1
1
1
1
1
1
CELL_DATA 36
SCALARS SlipSystem integer
LOOKUP_TABLE default
1
1
1
1
1
1
1
1
1
1
1
1
1
1
1
1
1
1
1
1
1
1
1
1
1
1
1
1
1
1
1
1
1
1
1
1
