# vtk DataFile Version 1.0
polyhedron
ASCII
DATASET POLYDATA
POINTS 20 float
7.173627E+02		9.725281E+02		-6.101881E+01
7.173627E+02		9.956221E+02		-6.101881E+01
7.404567E+02		9.956221E+02		-6.101881E+01
7.404567E+02		9.725281E+02		-6.101881E+01
7.173627E+02		9.725281E+02		-3.792480E+01
7.173627E+02		9.956221E+02		-3.792480E+01
7.404567E+02		9.956221E+02		-3.792480E+01
7.404567E+02		9.725281E+02		-3.792480E+01
7.289097E+02		9.769386E+02		-6.815526E+01
7.289097E+02		9.769386E+02		-3.078836E+01
7.289097E+02		9.912115E+02		-6.815526E+01
7.289097E+02		9.912115E+02		-3.078836E+01
7.102262E+02		9.840751E+02		-5.660825E+01
7.102262E+02		9.840751E+02		-4.233537E+01
7.475931E+02		9.840751E+02		-5.660825E+01
7.475931E+02		9.840751E+02		-4.233537E+01
7.217732E+02		9.653916E+02		-4.947181E+01
7.217732E+02		1.002759E+03		-4.947181E+01
7.360461E+02		9.653916E+02		-4.947181E+01
7.360461E+02		1.002759E+03		-4.947181E+01
POLYGONS 36 144
3		9		7		6
3		10		19		2
3		10		2		3
3		10		3		8
3		11		6		19
3		11		9		6
3		12		8		0
3		12		1		10
3		12		10		8
3		13		4		9
3		13		11		5
3		13		9		11
3		14		2		19
3		14		3		2
3		14		7		3
3		15		19		6
3		15		6		7
3		15		14		19
3		15		7		14
3		16		0		8
3		16		9		4
3		16		12		0
3		16		4		13
3		16		13		12
3		17		10		1
3		17		19		10
3		17		5		11
3		17		11		19
3		17		1		12
3		17		13		5
3		17		12		13
3		18		3		7
3		18		8		3
3		18		7		9
3		18		16		8
3		18		9		16
POINT_DATA 20
scalars NodeType integer
LOOKUP_TABLE default
1
1
1
1
1
1
1
1
1
1
1
1
1
1
1
1
1
1
1
1
CELL_DATA 36
SCALARS SlipSystem integer
LOOKUP_TABLE default
1
1
1
1
1
1
1
1
1
1
1
1
1
1
1
1
1
1
1
1
1
1
1
1
1
1
1
1
1
1
1
1
1
1
1
1
