# vtk DataFile Version 1.0
polyhedron
ASCII
DATASET POLYDATA
POINTS 20 float
-1.630990E+02		-2.339101E+02		-3.212553E+01
-1.630990E+02		-2.108161E+02		-3.212553E+01
-1.400050E+02		-2.108161E+02		-3.212553E+01
-1.400050E+02		-2.339101E+02		-3.212553E+01
-1.630990E+02		-2.339101E+02		-9.031518E+00
-1.630990E+02		-2.108161E+02		-9.031518E+00
-1.400050E+02		-2.108161E+02		-9.031518E+00
-1.400050E+02		-2.339101E+02		-9.031518E+00
-1.515520E+02		-2.294996E+02		-3.926197E+01
-1.515520E+02		-2.294996E+02		-1.895076E+00
-1.515520E+02		-2.152267E+02		-3.926197E+01
-1.515520E+02		-2.152267E+02		-1.895076E+00
-1.702354E+02		-2.223631E+02		-2.771496E+01
-1.702354E+02		-2.223631E+02		-1.344208E+01
-1.328685E+02		-2.223631E+02		-2.771496E+01
-1.328685E+02		-2.223631E+02		-1.344208E+01
-1.586884E+02		-2.410466E+02		-2.057852E+01
-1.586884E+02		-2.036797E+02		-2.057852E+01
-1.444155E+02		-2.410466E+02		-2.057852E+01
-1.444155E+02		-2.036797E+02		-2.057852E+01
POLYGONS 36 144
3		6		19		5
3		10		0		1
3		10		1		2
3		10		8		0
3		11		5		4
3		11		6		5
3		11		4		9
3		12		1		0
3		12		0		4
3		13		5		1
3		13		4		5
3		13		1		12
3		13		12		4
3		14		2		19
3		14		3		8
3		14		10		2
3		14		8		10
3		15		19		6
3		15		9		7
3		15		6		11
3		15		11		9
3		15		14		19
3		16		4		0
3		16		0		8
3		16		9		4
3		17		19		2
3		17		2		1
3		17		1		5
3		17		5		19
3		18		8		3
3		18		7		9
3		18		3		14
3		18		15		7
3		18		14		15
3		18		16		8
3		18		9		16
POINT_DATA 20
scalars NodeType integer
LOOKUP_TABLE default
1
1
1
1
1
1
1
1
1
1
1
1
1
1
1
1
1
1
1
1
CELL_DATA 36
SCALARS SlipSystem integer
LOOKUP_TABLE default
1
1
1
1
1
1
1
1
1
1
1
1
1
1
1
1
1
1
1
1
1
1
1
1
1
1
1
1
1
1
1
1
1
1
1
1
