# vtk DataFile Version 1.0
polyhedron
ASCII
DATASET POLYDATA
POINTS 20 float
-1.880122E+02		9.301909E+02		-1.869267E+01
-1.880122E+02		9.532849E+02		-1.869267E+01
-1.649182E+02		9.532849E+02		-1.869267E+01
-1.649182E+02		9.301909E+02		-1.869267E+01
-1.880122E+02		9.301909E+02		4.401345E+00
-1.880122E+02		9.532849E+02		4.401345E+00
-1.649182E+02		9.532849E+02		4.401345E+00
-1.649182E+02		9.301909E+02		4.401345E+00
-1.764652E+02		9.346015E+02		-2.582911E+01
-1.764652E+02		9.346015E+02		1.153779E+01
-1.764652E+02		9.488744E+02		-2.582911E+01
-1.764652E+02		9.488744E+02		1.153779E+01
-1.951486E+02		9.417379E+02		-1.428210E+01
-1.951486E+02		9.417379E+02		-9.218542E-03
-1.577817E+02		9.417379E+02		-1.428210E+01
-1.577817E+02		9.417379E+02		-9.218542E-03
-1.836016E+02		9.230545E+02		-7.145660E+00
-1.836016E+02		9.604214E+02		-7.145660E+00
-1.693287E+02		9.230545E+02		-7.145660E+00
-1.693287E+02		9.604214E+02		-7.145660E+00
POLYGONS 36 144
3		8		3		0
3		9		4		7
3		10		0		1
3		10		19		2
3		10		8		0
3		11		5		4
3		11		6		19
3		11		4		9
3		12		1		0
3		12		0		4
3		13		5		1
3		13		4		5
3		13		1		12
3		13		12		4
3		14		2		19
3		14		3		8
3		14		10		2
3		14		8		10
3		15		19		6
3		15		9		7
3		15		6		11
3		15		11		9
3		15		14		19
3		16		4		0
3		16		7		4
3		17		1		5
3		17		10		1
3		17		19		10
3		17		5		11
3		17		11		19
3		18		0		3
3		18		3		14
3		18		15		7
3		18		14		15
3		18		16		0
3		18		7		16
POINT_DATA 20
scalars NodeType integer
LOOKUP_TABLE default
1
1
1
1
1
1
1
1
1
1
1
1
1
1
1
1
1
1
1
1
CELL_DATA 36
SCALARS SlipSystem integer
LOOKUP_TABLE default
1
1
1
1
1
1
1
1
1
1
1
1
1
1
1
1
1
1
1
1
1
1
1
1
1
1
1
1
1
1
1
1
1
1
1
1
