# vtk DataFile Version 1.0
polyhedron
ASCII
DATASET POLYDATA
POINTS 20 float
-9.228461E+00		-6.837330E+02		2.296614E+01
-9.228461E+00		-6.606390E+02		2.296614E+01
1.386555E+01		-6.606390E+02		2.296614E+01
1.386555E+01		-6.837330E+02		2.296614E+01
-9.228461E+00		-6.837330E+02		4.606015E+01
-9.228461E+00		-6.606390E+02		4.606015E+01
1.386555E+01		-6.606390E+02		4.606015E+01
1.386555E+01		-6.837330E+02		4.606015E+01
2.318545E+00		-6.793224E+02		1.582969E+01
2.318545E+00		-6.793224E+02		5.319659E+01
2.318545E+00		-6.650496E+02		1.582969E+01
2.318545E+00		-6.650496E+02		5.319659E+01
-1.636490E+01		-6.721860E+02		2.737670E+01
-1.636490E+01		-6.721860E+02		4.164958E+01
2.100199E+01		-6.721860E+02		2.737670E+01
2.100199E+01		-6.721860E+02		4.164958E+01
-4.817897E+00		-6.908694E+02		3.451314E+01
-4.817897E+00		-6.535025E+02		3.451314E+01
9.454986E+00		-6.908694E+02		3.451314E+01
9.454986E+00		-6.535025E+02		3.451314E+01
POLYGONS 36 144
3		6		19		5
3		8		3		0
3		9		4		7
3		9		7		6
3		10		19		2
3		11		5		4
3		11		6		5
3		11		4		9
3		11		9		6
3		12		0		4
3		12		8		0
3		12		1		10
3		12		10		8
3		13		4		5
3		13		12		4
3		14		2		19
3		14		7		3
3		14		3		8
3		14		10		2
3		14		8		10
3		15		19		6
3		15		6		7
3		15		14		19
3		15		7		14
3		16		0		3
3		16		4		0
3		16		7		4
3		17		5		19
3		17		10		1
3		17		19		10
3		17		1		12
3		17		13		5
3		17		12		13
3		18		3		7
3		18		16		3
3		18		7		16
POINT_DATA 20
scalars NodeType integer
LOOKUP_TABLE default
1
1
1
1
1
1
1
1
1
1
1
1
1
1
1
1
1
1
1
1
CELL_DATA 36
SCALARS SlipSystem integer
LOOKUP_TABLE default
1
1
1
1
1
1
1
1
1
1
1
1
1
1
1
1
1
1
1
1
1
1
1
1
1
1
1
1
1
1
1
1
1
1
1
1
