# vtk DataFile Version 1.0
polyhedron
ASCII
DATASET POLYDATA
POINTS 20 float
8.072206E+02		-2.990656E+02		-7.307314E+00
8.072206E+02		-2.759716E+02		-7.307314E+00
8.303147E+02		-2.759716E+02		-7.307314E+00
8.303147E+02		-2.990656E+02		-7.307314E+00
8.072206E+02		-2.990656E+02		1.578670E+01
8.072206E+02		-2.759716E+02		1.578670E+01
8.303147E+02		-2.759716E+02		1.578670E+01
8.303147E+02		-2.990656E+02		1.578670E+01
8.187677E+02		-2.946550E+02		-1.444376E+01
8.187677E+02		-2.946550E+02		2.292314E+01
8.187677E+02		-2.803821E+02		-1.444376E+01
8.187677E+02		-2.803821E+02		2.292314E+01
8.000842E+02		-2.875186E+02		-2.896751E+00
8.000842E+02		-2.875186E+02		1.137613E+01
8.374511E+02		-2.875186E+02		-2.896751E+00
8.374511E+02		-2.875186E+02		1.137613E+01
8.116312E+02		-3.062020E+02		4.239691E+00
8.116312E+02		-2.688351E+02		4.239691E+00
8.259041E+02		-3.062020E+02		4.239691E+00
8.259041E+02		-2.688351E+02		4.239691E+00
POLYGONS 36 144
3		6		2		19
3		8		0		1
3		8		3		0
3		8		2		3
3		9		5		4
3		9		4		7
3		9		7		6
3		10		19		2
3		10		8		1
3		10		2		8
3		11		6		19
3		11		5		9
3		11		9		6
3		12		1		0
3		12		0		4
3		12		5		1
3		13		4		5
3		13		12		4
3		13		5		12
3		14		3		2
3		15		2		6
3		15		7		3
3		15		6		7
3		15		3		14
3		15		14		2
3		16		4		0
3		16		7		4
3		17		1		5
3		17		10		1
3		17		19		10
3		17		5		11
3		17		11		19
3		18		0		3
3		18		3		7
3		18		16		0
3		18		7		16
POINT_DATA 20
scalars NodeType integer
LOOKUP_TABLE default
1
1
1
1
1
1
1
1
1
1
1
1
1
1
1
1
1
1
1
1
CELL_DATA 36
SCALARS SlipSystem integer
LOOKUP_TABLE default
1
1
1
1
1
1
1
1
1
1
1
1
1
1
1
1
1
1
1
1
1
1
1
1
1
1
1
1
1
1
1
1
1
1
1
1
