# vtk DataFile Version 1.0
polyhedron
ASCII
DATASET POLYDATA
POINTS 20 float
-2.223492E+02		9.681532E+02		2.318412E+01
-2.223492E+02		9.912472E+02		2.318412E+01
-1.992552E+02		9.912472E+02		2.318412E+01
-1.992552E+02		9.681532E+02		2.318412E+01
-2.223492E+02		9.681532E+02		4.627813E+01
-2.223492E+02		9.912472E+02		4.627813E+01
-1.992552E+02		9.912472E+02		4.627813E+01
-1.992552E+02		9.681532E+02		4.627813E+01
-2.108022E+02		9.725638E+02		1.604768E+01
-2.108022E+02		9.725638E+02		5.341457E+01
-2.108022E+02		9.868367E+02		1.604768E+01
-2.108022E+02		9.868367E+02		5.341457E+01
-2.294856E+02		9.797002E+02		2.759468E+01
-2.294856E+02		9.797002E+02		4.186757E+01
-1.921187E+02		9.797002E+02		2.759468E+01
-1.921187E+02		9.797002E+02		4.186757E+01
-2.179386E+02		9.610168E+02		3.473112E+01
-2.179386E+02		9.983837E+02		3.473112E+01
-2.036657E+02		9.610168E+02		3.473112E+01
-2.036657E+02		9.983837E+02		3.473112E+01
POLYGONS 36 144
3		8		3		0
3		9		5		4
3		9		4		7
3		10		0		1
3		10		19		2
3		10		8		0
3		11		6		19
3		11		5		9
3		12		1		0
3		12		0		4
3		13		5		1
3		13		4		5
3		13		1		12
3		13		12		4
3		14		2		19
3		14		3		8
3		14		10		2
3		14		8		10
3		15		19		6
3		15		9		7
3		15		6		11
3		15		11		9
3		15		14		19
3		16		0		3
3		16		4		0
3		17		1		5
3		17		10		1
3		17		19		10
3		17		5		11
3		17		11		19
3		18		7		4
3		18		3		14
3		18		15		7
3		18		14		15
3		18		16		3
3		18		4		16
POINT_DATA 20
scalars NodeType integer
LOOKUP_TABLE default
1
1
1
1
1
1
1
1
1
1
1
1
1
1
1
1
1
1
1
1
CELL_DATA 36
SCALARS SlipSystem integer
LOOKUP_TABLE default
1
1
1
1
1
1
1
1
1
1
1
1
1
1
1
1
1
1
1
1
1
1
1
1
1
1
1
1
1
1
1
1
1
1
1
1
