# vtk DataFile Version 1.0
polyhedron
ASCII
DATASET POLYDATA
POINTS 20 float
8.574876E+02		8.238895E+02		2.440366E+01
8.574876E+02		8.469835E+02		2.440366E+01
8.805816E+02		8.469835E+02		2.440366E+01
8.805816E+02		8.238895E+02		2.440366E+01
8.574876E+02		8.238895E+02		4.749767E+01
8.574876E+02		8.469835E+02		4.749767E+01
8.805816E+02		8.469835E+02		4.749767E+01
8.805816E+02		8.238895E+02		4.749767E+01
8.690346E+02		8.283001E+02		1.726722E+01
8.690346E+02		8.283001E+02		5.463411E+01
8.690346E+02		8.425729E+02		1.726722E+01
8.690346E+02		8.425729E+02		5.463411E+01
8.503511E+02		8.354365E+02		2.881422E+01
8.503511E+02		8.354365E+02		4.308711E+01
8.877180E+02		8.354365E+02		2.881422E+01
8.877180E+02		8.354365E+02		4.308711E+01
8.618981E+02		8.167530E+02		3.595066E+01
8.618981E+02		8.541199E+02		3.595066E+01
8.761710E+02		8.167530E+02		3.595066E+01
8.761710E+02		8.541199E+02		3.595066E+01
POLYGONS 36 144
3		6		2		19
3		6		19		5
3		9		4		7
3		9		7		6
3		10		1		2
3		10		2		3
3		10		3		8
3		11		6		5
3		11		9		6
3		12		8		0
3		12		1		10
3		12		10		8
3		13		4		9
3		13		11		5
3		13		9		11
3		14		3		2
3		14		2		6
3		15		7		3
3		15		6		7
3		15		3		14
3		15		14		6
3		16		0		8
3		16		12		0
3		16		4		13
3		16		13		12
3		17		19		2
3		17		2		1
3		17		5		19
3		17		1		12
3		17		13		5
3		17		12		13
3		18		7		4
3		18		3		7
3		18		8		3
3		18		4		16
3		18		16		8
POINT_DATA 20
scalars NodeType integer
LOOKUP_TABLE default
1
1
1
1
1
1
1
1
1
1
1
1
1
1
1
1
1
1
1
1
CELL_DATA 36
SCALARS SlipSystem integer
LOOKUP_TABLE default
1
1
1
1
1
1
1
1
1
1
1
1
1
1
1
1
1
1
1
1
1
1
1
1
1
1
1
1
1
1
1
1
1
1
1
1
