# vtk DataFile Version 1.0
polyhedron
ASCII
DATASET POLYDATA
POINTS 20 float
-8.042078E+02		-8.247504E+01		-4.274248E+00
-8.042078E+02		-5.938103E+01		-4.274248E+00
-7.811138E+02		-5.938103E+01		-4.274248E+00
-7.811138E+02		-8.247504E+01		-4.274248E+00
-8.042078E+02		-8.247504E+01		1.881976E+01
-8.042078E+02		-5.938103E+01		1.881976E+01
-7.811138E+02		-5.938103E+01		1.881976E+01
-7.811138E+02		-8.247504E+01		1.881976E+01
-7.926608E+02		-7.806448E+01		-1.141069E+01
-7.926608E+02		-7.806448E+01		2.595621E+01
-7.926608E+02		-6.379159E+01		-1.141069E+01
-7.926608E+02		-6.379159E+01		2.595621E+01
-8.113442E+02		-7.092803E+01		1.363161E-01
-8.113442E+02		-7.092803E+01		1.440920E+01
-7.739773E+02		-7.092803E+01		1.363161E-01
-7.739773E+02		-7.092803E+01		1.440920E+01
-7.997972E+02		-8.961148E+01		7.272758E+00
-7.997972E+02		-5.224459E+01		7.272758E+00
-7.855243E+02		-8.961148E+01		7.272758E+00
-7.855243E+02		-5.224459E+01		7.272758E+00
POLYGONS 36 144
3		8		0		1
3		10		19		2
3		10		8		1
3		11		5		4
3		11		6		19
3		11		4		9
3		12		1		0
3		12		0		4
3		12		5		1
3		13		4		5
3		13		12		4
3		13		5		12
3		14		2		19
3		14		3		8
3		14		10		2
3		14		8		10
3		15		19		6
3		15		9		7
3		15		6		11
3		15		11		9
3		15		14		19
3		16		4		0
3		16		0		8
3		16		9		4
3		17		1		5
3		17		10		1
3		17		19		10
3		17		5		11
3		17		11		19
3		18		8		3
3		18		7		9
3		18		3		14
3		18		15		7
3		18		14		15
3		18		16		8
3		18		9		16
POINT_DATA 20
scalars NodeType integer
LOOKUP_TABLE default
1
1
1
1
1
1
1
1
1
1
1
1
1
1
1
1
1
1
1
1
CELL_DATA 36
SCALARS SlipSystem integer
LOOKUP_TABLE default
1
1
1
1
1
1
1
1
1
1
1
1
1
1
1
1
1
1
1
1
1
1
1
1
1
1
1
1
1
1
1
1
1
1
1
1
