# vtk DataFile Version 1.0
polyhedron
ASCII
DATASET POLYDATA
POINTS 20 float
6.214305E+02		-3.556417E+01		-5.442836E+01
6.214305E+02		-1.247016E+01		-5.442836E+01
6.445245E+02		-1.247016E+01		-5.442836E+01
6.445245E+02		-3.556417E+01		-5.442836E+01
6.214305E+02		-3.556417E+01		-3.133435E+01
6.214305E+02		-1.247016E+01		-3.133435E+01
6.445245E+02		-1.247016E+01		-3.133435E+01
6.445245E+02		-3.556417E+01		-3.133435E+01
6.329775E+02		-3.115360E+01		-6.156480E+01
6.329775E+02		-3.115360E+01		-2.419791E+01
6.329775E+02		-1.688072E+01		-6.156480E+01
6.329775E+02		-1.688072E+01		-2.419791E+01
6.142940E+02		-2.401716E+01		-5.001780E+01
6.142940E+02		-2.401716E+01		-3.574491E+01
6.516609E+02		-2.401716E+01		-5.001780E+01
6.516609E+02		-2.401716E+01		-3.574491E+01
6.258410E+02		-4.270061E+01		-4.288135E+01
6.258410E+02		-5.333715E+00		-4.288135E+01
6.401139E+02		-4.270061E+01		-4.288135E+01
6.401139E+02		-5.333715E+00		-4.288135E+01
POLYGONS 36 144
3		6		2		19
3		8		3		0
3		9		4		7
3		9		7		6
3		10		19		2
3		10		2		3
3		10		3		8
3		11		6		19
3		11		9		6
3		12		8		0
3		12		1		10
3		12		10		8
3		13		4		9
3		13		11		5
3		13		9		11
3		14		3		2
3		15		2		6
3		15		7		3
3		15		6		7
3		15		3		14
3		15		14		2
3		16		7		4
3		16		12		0
3		16		4		13
3		16		13		12
3		17		10		1
3		17		19		10
3		17		5		11
3		17		11		19
3		17		1		12
3		17		13		5
3		17		12		13
3		18		0		3
3		18		3		7
3		18		16		0
3		18		7		16
POINT_DATA 20
scalars NodeType integer
LOOKUP_TABLE default
1
1
1
1
1
1
1
1
1
1
1
1
1
1
1
1
1
1
1
1
CELL_DATA 36
SCALARS SlipSystem integer
LOOKUP_TABLE default
1
1
1
1
1
1
1
1
1
1
1
1
1
1
1
1
1
1
1
1
1
1
1
1
1
1
1
1
1
1
1
1
1
1
1
1
