# vtk DataFile Version 1.0
polyhedron
ASCII
DATASET POLYDATA
POINTS 20 float
7.018398E+02		6.725167E+01		3.224970E+01
7.018398E+02		9.034568E+01		3.224970E+01
7.249338E+02		9.034568E+01		3.224970E+01
7.249338E+02		6.725167E+01		3.224970E+01
7.018398E+02		6.725167E+01		5.534371E+01
7.018398E+02		9.034568E+01		5.534371E+01
7.249338E+02		9.034568E+01		5.534371E+01
7.249338E+02		6.725167E+01		5.534371E+01
7.133868E+02		7.166224E+01		2.511325E+01
7.133868E+02		7.166224E+01		6.248015E+01
7.133868E+02		8.593512E+01		2.511325E+01
7.133868E+02		8.593512E+01		6.248015E+01
6.947033E+02		7.879868E+01		3.666026E+01
6.947033E+02		7.879868E+01		5.093314E+01
7.320702E+02		7.879868E+01		3.666026E+01
7.320702E+02		7.879868E+01		5.093314E+01
7.062503E+02		6.011523E+01		4.379670E+01
7.062503E+02		9.748212E+01		4.379670E+01
7.205232E+02		6.011523E+01		4.379670E+01
7.205232E+02		9.748212E+01		4.379670E+01
POLYGONS 36 144
3		6		2		19
3		8		3		0
3		9		4		7
3		9		7		6
3		10		19		2
3		10		2		3
3		10		3		8
3		11		6		5
3		11		9		6
3		12		8		0
3		12		1		10
3		12		10		8
3		13		4		9
3		13		11		5
3		13		9		11
3		14		3		2
3		14		2		6
3		15		7		3
3		15		6		7
3		15		3		14
3		15		14		6
3		16		0		3
3		16		12		0
3		16		4		13
3		16		13		12
3		17		6		19
3		17		5		6
3		17		10		1
3		17		19		10
3		17		1		12
3		17		13		5
3		17		12		13
3		18		7		4
3		18		3		7
3		18		16		3
3		18		4		16
POINT_DATA 20
scalars NodeType integer
LOOKUP_TABLE default
1
1
1
1
1
1
1
1
1
1
1
1
1
1
1
1
1
1
1
1
CELL_DATA 36
SCALARS SlipSystem integer
LOOKUP_TABLE default
1
1
1
1
1
1
1
1
1
1
1
1
1
1
1
1
1
1
1
1
1
1
1
1
1
1
1
1
1
1
1
1
1
1
1
1
