# vtk DataFile Version 1.0
polyhedron
ASCII
DATASET POLYDATA
POINTS 20 float
-6.735216E+02		-7.174471E+02		-1.138279E+01
-6.735216E+02		-6.943531E+02		-1.138279E+01
-6.504275E+02		-6.943531E+02		-1.138279E+01
-6.504275E+02		-7.174471E+02		-1.138279E+01
-6.735216E+02		-7.174471E+02		1.171122E+01
-6.735216E+02		-6.943531E+02		1.171122E+01
-6.504275E+02		-6.943531E+02		1.171122E+01
-6.504275E+02		-7.174471E+02		1.171122E+01
-6.619745E+02		-7.130365E+02		-1.851923E+01
-6.619745E+02		-7.130365E+02		1.884766E+01
-6.619745E+02		-6.987636E+02		-1.851923E+01
-6.619745E+02		-6.987636E+02		1.884766E+01
-6.806580E+02		-7.059001E+02		-6.972227E+00
-6.806580E+02		-7.059001E+02		7.300656E+00
-6.432911E+02		-7.059001E+02		-6.972227E+00
-6.432911E+02		-7.059001E+02		7.300656E+00
-6.691110E+02		-7.245835E+02		1.642143E-01
-6.691110E+02		-6.872166E+02		1.642143E-01
-6.548381E+02		-7.245835E+02		1.642143E-01
-6.548381E+02		-6.872166E+02		1.642143E-01
POLYGONS 36 144
3		6		2		19
3		8		3		0
3		9		5		4
3		9		4		7
3		9		7		6
3		10		0		1
3		10		19		2
3		10		2		3
3		10		8		0
3		10		3		8
3		11		6		19
3		11		5		9
3		11		9		6
3		12		1		0
3		12		0		4
3		13		5		1
3		13		4		5
3		13		1		12
3		13		12		4
3		14		3		2
3		14		2		6
3		15		7		3
3		15		6		7
3		15		3		14
3		15		14		6
3		16		4		0
3		17		1		5
3		17		10		1
3		17		19		10
3		17		5		11
3		17		11		19
3		18		0		3
3		18		7		4
3		18		3		7
3		18		16		0
3		18		4		16
POINT_DATA 20
scalars NodeType integer
LOOKUP_TABLE default
1
1
1
1
1
1
1
1
1
1
1
1
1
1
1
1
1
1
1
1
CELL_DATA 36
SCALARS SlipSystem integer
LOOKUP_TABLE default
1
1
1
1
1
1
1
1
1
1
1
1
1
1
1
1
1
1
1
1
1
1
1
1
1
1
1
1
1
1
1
1
1
1
1
1
