# vtk DataFile Version 1.0
polyhedron
ASCII
DATASET POLYDATA
POINTS 20 float
3.238654E+02		6.847817E+02		-7.059581E+00
3.238654E+02		7.078757E+02		-7.059581E+00
3.469594E+02		7.078757E+02		-7.059581E+00
3.469594E+02		6.847817E+02		-7.059581E+00
3.238654E+02		6.847817E+02		1.603443E+01
3.238654E+02		7.078757E+02		1.603443E+01
3.469594E+02		7.078757E+02		1.603443E+01
3.469594E+02		6.847817E+02		1.603443E+01
3.354124E+02		6.891923E+02		-1.419602E+01
3.354124E+02		6.891923E+02		2.317087E+01
3.354124E+02		7.034652E+02		-1.419602E+01
3.354124E+02		7.034652E+02		2.317087E+01
3.167290E+02		6.963287E+02		-2.649017E+00
3.167290E+02		6.963287E+02		1.162387E+01
3.540959E+02		6.963287E+02		-2.649017E+00
3.540959E+02		6.963287E+02		1.162387E+01
3.282760E+02		6.776453E+02		4.487425E+00
3.282760E+02		7.150122E+02		4.487425E+00
3.425489E+02		6.776453E+02		4.487425E+00
3.425489E+02		7.150122E+02		4.487425E+00
POLYGONS 36 144
3		8		0		1
3		8		3		0
3		9		5		4
3		9		4		7
3		10		19		2
3		10		8		1
3		11		6		19
3		11		5		9
3		12		1		0
3		12		5		1
3		13		0		4
3		13		4		5
3		13		12		0
3		13		5		12
3		14		2		19
3		14		3		8
3		14		10		2
3		14		8		10
3		15		19		6
3		15		9		7
3		15		6		11
3		15		11		9
3		15		14		19
3		16		0		3
3		16		4		0
3		16		7		4
3		17		1		5
3		17		10		1
3		17		19		10
3		17		5		11
3		17		11		19
3		18		3		14
3		18		15		7
3		18		14		15
3		18		16		3
3		18		7		16
POINT_DATA 20
scalars NodeType integer
LOOKUP_TABLE default
1
1
1
1
1
1
1
1
1
1
1
1
1
1
1
1
1
1
1
1
CELL_DATA 36
SCALARS SlipSystem integer
LOOKUP_TABLE default
1
1
1
1
1
1
1
1
1
1
1
1
1
1
1
1
1
1
1
1
1
1
1
1
1
1
1
1
1
1
1
1
1
1
1
1
