# vtk DataFile Version 1.0
polyhedron
ASCII
DATASET POLYDATA
POINTS 20 float
7.330280E+02		6.899772E+02		-3.752107E+01
7.330280E+02		7.130712E+02		-3.752107E+01
7.561220E+02		7.130712E+02		-3.752107E+01
7.561220E+02		6.899772E+02		-3.752107E+01
7.330280E+02		6.899772E+02		-1.442706E+01
7.330280E+02		7.130712E+02		-1.442706E+01
7.561220E+02		7.130712E+02		-1.442706E+01
7.561220E+02		6.899772E+02		-1.442706E+01
7.445750E+02		6.943877E+02		-4.465751E+01
7.445750E+02		6.943877E+02		-7.290613E+00
7.445750E+02		7.086606E+02		-4.465751E+01
7.445750E+02		7.086606E+02		-7.290613E+00
7.258915E+02		7.015242E+02		-3.311050E+01
7.258915E+02		7.015242E+02		-1.883762E+01
7.632584E+02		7.015242E+02		-3.311050E+01
7.632584E+02		7.015242E+02		-1.883762E+01
7.374386E+02		6.828407E+02		-2.597406E+01
7.374386E+02		7.202076E+02		-2.597406E+01
7.517114E+02		6.828407E+02		-2.597406E+01
7.517114E+02		7.202076E+02		-2.597406E+01
POLYGONS 36 144
3		6		2		19
3		9		7		6
3		10		1		2
3		10		2		3
3		10		3		8
3		11		6		5
3		11		9		6
3		12		8		0
3		12		1		10
3		12		10		8
3		13		5		1
3		13		4		9
3		13		11		5
3		13		9		11
3		13		1		12
3		14		3		2
3		14		7		3
3		15		2		6
3		15		6		7
3		15		14		2
3		15		7		14
3		16		0		8
3		16		9		4
3		16		12		0
3		16		4		13
3		16		13		12
3		17		19		2
3		17		2		1
3		17		1		5
3		17		6		19
3		17		5		6
3		18		3		7
3		18		8		3
3		18		7		9
3		18		16		8
3		18		9		16
POINT_DATA 20
scalars NodeType integer
LOOKUP_TABLE default
1
1
1
1
1
1
1
1
1
1
1
1
1
1
1
1
1
1
1
1
CELL_DATA 36
SCALARS SlipSystem integer
LOOKUP_TABLE default
1
1
1
1
1
1
1
1
1
1
1
1
1
1
1
1
1
1
1
1
1
1
1
1
1
1
1
1
1
1
1
1
1
1
1
1
