# vtk DataFile Version 1.0
polyhedron
ASCII
DATASET POLYDATA
POINTS 20 float
-5.591141E+02		-6.337907E+02		-6.148713E+01
-5.591141E+02		-6.106967E+02		-6.148713E+01
-5.360201E+02		-6.106967E+02		-6.148713E+01
-5.360201E+02		-6.337907E+02		-6.148713E+01
-5.591141E+02		-6.337907E+02		-3.839312E+01
-5.591141E+02		-6.106967E+02		-3.839312E+01
-5.360201E+02		-6.106967E+02		-3.839312E+01
-5.360201E+02		-6.337907E+02		-3.839312E+01
-5.475671E+02		-6.293802E+02		-6.862358E+01
-5.475671E+02		-6.293802E+02		-3.125668E+01
-5.475671E+02		-6.151073E+02		-6.862358E+01
-5.475671E+02		-6.151073E+02		-3.125668E+01
-5.662505E+02		-6.222437E+02		-5.707657E+01
-5.662505E+02		-6.222437E+02		-4.280369E+01
-5.288836E+02		-6.222437E+02		-5.707657E+01
-5.288836E+02		-6.222437E+02		-4.280369E+01
-5.547035E+02		-6.409272E+02		-4.994013E+01
-5.547035E+02		-6.035603E+02		-4.994013E+01
-5.404306E+02		-6.409272E+02		-4.994013E+01
-5.404306E+02		-6.035603E+02		-4.994013E+01
POLYGONS 36 144
3		10		0		1
3		10		1		2
3		10		8		0
3		11		5		4
3		11		6		5
3		11		4		9
3		12		1		0
3		12		0		4
3		13		5		1
3		13		4		5
3		13		1		12
3		13		12		4
3		14		2		19
3		14		3		8
3		14		10		2
3		14		8		10
3		15		19		6
3		15		9		7
3		15		6		11
3		15		11		9
3		15		14		19
3		16		4		0
3		16		0		8
3		16		9		4
3		17		19		2
3		17		2		1
3		17		1		5
3		17		6		19
3		17		5		6
3		18		8		3
3		18		7		9
3		18		3		14
3		18		15		7
3		18		14		15
3		18		16		8
3		18		9		16
POINT_DATA 20
scalars NodeType integer
LOOKUP_TABLE default
1
1
1
1
1
1
1
1
1
1
1
1
1
1
1
1
1
1
1
1
CELL_DATA 36
SCALARS SlipSystem integer
LOOKUP_TABLE default
1
1
1
1
1
1
1
1
1
1
1
1
1
1
1
1
1
1
1
1
1
1
1
1
1
1
1
1
1
1
1
1
1
1
1
1
