# vtk DataFile Version 1.0
polyhedron
ASCII
DATASET POLYDATA
POINTS 20 float
-6.711472E+02		1.402813E+02		5.100941E+00
-6.711472E+02		1.633753E+02		5.100941E+00
-6.480532E+02		1.633753E+02		5.100941E+00
-6.480532E+02		1.402813E+02		5.100941E+00
-6.711472E+02		1.402813E+02		2.819495E+01
-6.711472E+02		1.633753E+02		2.819495E+01
-6.480532E+02		1.633753E+02		2.819495E+01
-6.480532E+02		1.402813E+02		2.819495E+01
-6.596002E+02		1.446919E+02		-2.035500E+00
-6.596002E+02		1.446919E+02		3.533139E+01
-6.596002E+02		1.589647E+02		-2.035500E+00
-6.596002E+02		1.589647E+02		3.533139E+01
-6.782837E+02		1.518283E+02		9.511505E+00
-6.782837E+02		1.518283E+02		2.378439E+01
-6.409168E+02		1.518283E+02		9.511505E+00
-6.409168E+02		1.518283E+02		2.378439E+01
-6.667367E+02		1.331448E+02		1.664795E+01
-6.667367E+02		1.705117E+02		1.664795E+01
-6.524638E+02		1.331448E+02		1.664795E+01
-6.524638E+02		1.705117E+02		1.664795E+01
POLYGONS 36 144
3		2		1		19
3		6		2		19
3		8		3		0
3		8		2		3
3		9		7		6
3		10		1		2
3		10		2		8
3		11		6		5
3		11		9		6
3		12		8		0
3		12		1		10
3		12		10		8
3		13		4		9
3		13		11		5
3		13		9		11
3		14		3		2
3		14		2		6
3		15		7		3
3		15		6		7
3		15		3		14
3		15		14		6
3		16		9		4
3		16		12		0
3		16		4		13
3		16		13		12
3		17		19		1
3		17		6		19
3		17		5		6
3		17		1		12
3		17		13		5
3		17		12		13
3		18		0		3
3		18		3		7
3		18		7		9
3		18		16		0
3		18		9		16
POINT_DATA 20
scalars NodeType integer
LOOKUP_TABLE default
1
1
1
1
1
1
1
1
1
1
1
1
1
1
1
1
1
1
1
1
CELL_DATA 36
SCALARS SlipSystem integer
LOOKUP_TABLE default
1
1
1
1
1
1
1
1
1
1
1
1
1
1
1
1
1
1
1
1
1
1
1
1
1
1
1
1
1
1
1
1
1
1
1
1
