# vtk DataFile Version 1.0
polyhedron
ASCII
DATASET POLYDATA
POINTS 20 float
-4.029654E+01		-5.102234E+02		2.185174E+01
-4.029654E+01		-4.871294E+02		2.185174E+01
-1.720253E+01		-4.871294E+02		2.185174E+01
-1.720253E+01		-5.102234E+02		2.185174E+01
-4.029654E+01		-5.102234E+02		4.494575E+01
-4.029654E+01		-4.871294E+02		4.494575E+01
-1.720253E+01		-4.871294E+02		4.494575E+01
-1.720253E+01		-5.102234E+02		4.494575E+01
-2.874953E+01		-5.058128E+02		1.471530E+01
-2.874953E+01		-5.058128E+02		5.208220E+01
-2.874953E+01		-4.915399E+02		1.471530E+01
-2.874953E+01		-4.915399E+02		5.208220E+01
-4.743298E+01		-4.986764E+02		2.626231E+01
-4.743298E+01		-4.986764E+02		4.053519E+01
-1.006608E+01		-4.986764E+02		2.626231E+01
-1.006608E+01		-4.986764E+02		4.053519E+01
-3.588597E+01		-5.173598E+02		3.339875E+01
-3.588597E+01		-4.799929E+02		3.339875E+01
-2.161309E+01		-5.173598E+02		3.339875E+01
-2.161309E+01		-4.799929E+02		3.339875E+01
POLYGONS 36 144
3		8		3		0
3		8		2		3
3		9		4		7
3		10		0		1
3		10		19		2
3		10		8		0
3		10		2		8
3		11		6		19
3		12		1		0
3		12		0		4
3		13		4		9
3		13		11		5
3		13		9		11
3		13		12		4
3		14		2		19
3		14		3		2
3		15		19		6
3		15		7		3
3		15		9		7
3		15		6		11
3		15		11		9
3		15		14		19
3		15		3		14
3		16		4		0
3		16		7		4
3		17		10		1
3		17		19		10
3		17		5		11
3		17		11		19
3		17		1		12
3		17		13		5
3		17		12		13
3		18		0		3
3		18		3		7
3		18		16		0
3		18		7		16
POINT_DATA 20
scalars NodeType integer
LOOKUP_TABLE default
1
1
1
1
1
1
1
1
1
1
1
1
1
1
1
1
1
1
1
1
CELL_DATA 36
SCALARS SlipSystem integer
LOOKUP_TABLE default
1
1
1
1
1
1
1
1
1
1
1
1
1
1
1
1
1
1
1
1
1
1
1
1
1
1
1
1
1
1
1
1
1
1
1
1
