# vtk DataFile Version 1.0
polyhedron
ASCII
DATASET POLYDATA
POINTS 20 float
9.808415E+02		-4.712286E+02		-5.444913E+01
9.808415E+02		-4.481346E+02		-5.444913E+01
1.003935E+03		-4.481346E+02		-5.444913E+01
1.003935E+03		-4.712286E+02		-5.444913E+01
9.808415E+02		-4.712286E+02		-3.135512E+01
9.808415E+02		-4.481346E+02		-3.135512E+01
1.003935E+03		-4.481346E+02		-3.135512E+01
1.003935E+03		-4.712286E+02		-3.135512E+01
9.923885E+02		-4.668180E+02		-6.158558E+01
9.923885E+02		-4.668180E+02		-2.421868E+01
9.923885E+02		-4.525452E+02		-6.158558E+01
9.923885E+02		-4.525452E+02		-2.421868E+01
9.737050E+02		-4.596816E+02		-5.003857E+01
9.737050E+02		-4.596816E+02		-3.576569E+01
1.011072E+03		-4.596816E+02		-5.003857E+01
1.011072E+03		-4.596816E+02		-3.576569E+01
9.852520E+02		-4.783650E+02		-4.290213E+01
9.852520E+02		-4.409981E+02		-4.290213E+01
9.995249E+02		-4.783650E+02		-4.290213E+01
9.995249E+02		-4.409981E+02		-4.290213E+01
POLYGONS 36 144
3		8		3		0
3		9		4		7
3		10		19		2
3		11		6		5
3		12		8		0
3		12		1		10
3		12		10		8
3		13		4		9
3		13		11		5
3		13		9		11
3		14		2		19
3		14		3		8
3		14		10		2
3		14		8		10
3		15		19		6
3		15		9		7
3		15		6		11
3		15		11		9
3		15		14		19
3		16		0		3
3		16		12		0
3		16		4		13
3		16		13		12
3		17		6		19
3		17		5		6
3		17		10		1
3		17		19		10
3		17		1		12
3		17		13		5
3		17		12		13
3		18		7		4
3		18		3		14
3		18		15		7
3		18		14		15
3		18		16		3
3		18		4		16
POINT_DATA 20
scalars NodeType integer
LOOKUP_TABLE default
1
1
1
1
1
1
1
1
1
1
1
1
1
1
1
1
1
1
1
1
CELL_DATA 36
SCALARS SlipSystem integer
LOOKUP_TABLE default
1
1
1
1
1
1
1
1
1
1
1
1
1
1
1
1
1
1
1
1
1
1
1
1
1
1
1
1
1
1
1
1
1
1
1
1
