# vtk DataFile Version 1.0
polyhedron
ASCII
DATASET POLYDATA
POINTS 20 float
4.891981E+02		-4.066857E+02		-9.101330E+00
4.891981E+02		-3.835917E+02		-9.101330E+00
5.122921E+02		-3.835917E+02		-9.101330E+00
5.122921E+02		-4.066857E+02		-9.101330E+00
4.891981E+02		-4.066857E+02		1.399268E+01
4.891981E+02		-3.835917E+02		1.399268E+01
5.122921E+02		-3.835917E+02		1.399268E+01
5.122921E+02		-4.066857E+02		1.399268E+01
5.007451E+02		-4.022751E+02		-1.623777E+01
5.007451E+02		-4.022751E+02		2.112912E+01
5.007451E+02		-3.880023E+02		-1.623777E+01
5.007451E+02		-3.880023E+02		2.112912E+01
4.820616E+02		-3.951387E+02		-4.690767E+00
4.820616E+02		-3.951387E+02		9.582117E+00
5.194285E+02		-3.951387E+02		-4.690767E+00
5.194285E+02		-3.951387E+02		9.582117E+00
4.936086E+02		-4.138222E+02		2.445675E+00
4.936086E+02		-3.764553E+02		2.445675E+00
5.078815E+02		-4.138222E+02		2.445675E+00
5.078815E+02		-3.764553E+02		2.445675E+00
POLYGONS 36 144
3		2		1		19
3		6		2		19
3		6		19		5
3		8		3		0
3		9		4		7
3		9		7		6
3		10		1		2
3		10		2		3
3		10		3		8
3		11		6		5
3		11		9		6
3		12		8		0
3		12		1		10
3		12		10		8
3		13		4		9
3		13		11		5
3		13		9		11
3		14		3		2
3		15		2		6
3		15		7		3
3		15		6		7
3		15		3		14
3		15		14		2
3		16		7		4
3		16		12		0
3		16		4		13
3		16		13		12
3		17		19		1
3		17		5		19
3		17		1		12
3		17		13		5
3		17		12		13
3		18		0		3
3		18		3		7
3		18		16		0
3		18		7		16
POINT_DATA 20
scalars NodeType integer
LOOKUP_TABLE default
1
1
1
1
1
1
1
1
1
1
1
1
1
1
1
1
1
1
1
1
CELL_DATA 36
SCALARS SlipSystem integer
LOOKUP_TABLE default
1
1
1
1
1
1
1
1
1
1
1
1
1
1
1
1
1
1
1
1
1
1
1
1
1
1
1
1
1
1
1
1
1
1
1
1
