# vtk DataFile Version 1.0
polyhedron
ASCII
DATASET POLYDATA
POINTS 20 float
-4.073259E+01		1.426440E+02		2.017064E+01
-4.073259E+01		1.657381E+02		2.017064E+01
-1.763858E+01		1.657381E+02		2.017064E+01
-1.763858E+01		1.426440E+02		2.017064E+01
-4.073259E+01		1.426440E+02		4.326466E+01
-4.073259E+01		1.657381E+02		4.326466E+01
-1.763858E+01		1.657381E+02		4.326466E+01
-1.763858E+01		1.426440E+02		4.326466E+01
-2.918559E+01		1.470546E+02		1.303420E+01
-2.918559E+01		1.470546E+02		5.040110E+01
-2.918559E+01		1.613275E+02		1.303420E+01
-2.918559E+01		1.613275E+02		5.040110E+01
-4.786903E+01		1.541911E+02		2.458121E+01
-4.786903E+01		1.541911E+02		3.885409E+01
-1.050214E+01		1.541911E+02		2.458121E+01
-1.050214E+01		1.541911E+02		3.885409E+01
-3.632203E+01		1.355076E+02		3.171765E+01
-3.632203E+01		1.728745E+02		3.171765E+01
-2.204915E+01		1.355076E+02		3.171765E+01
-2.204915E+01		1.728745E+02		3.171765E+01
POLYGONS 36 144
3		2		1		19
3		6		2		19
3		6		19		5
3		8		0		1
3		8		3		0
3		9		5		4
3		9		4		7
3		10		1		2
3		10		2		3
3		10		8		1
3		10		3		8
3		11		6		5
3		11		7		6
3		11		5		9
3		11		9		7
3		12		1		0
3		12		5		1
3		13		0		4
3		13		4		5
3		13		12		0
3		13		5		12
3		14		3		2
3		14		7		3
3		15		2		6
3		15		6		7
3		15		14		2
3		15		7		14
3		16		0		3
3		16		4		0
3		17		19		1
3		17		1		5
3		17		5		19
3		18		7		4
3		18		3		7
3		18		16		3
3		18		4		16
POINT_DATA 20
scalars NodeType integer
LOOKUP_TABLE default
1
1
1
1
1
1
1
1
1
1
1
1
1
1
1
1
1
1
1
1
CELL_DATA 36
SCALARS SlipSystem integer
LOOKUP_TABLE default
1
1
1
1
1
1
1
1
1
1
1
1
1
1
1
1
1
1
1
1
1
1
1
1
1
1
1
1
1
1
1
1
1
1
1
1
