# vtk DataFile Version 1.0
polyhedron
ASCII
DATASET POLYDATA
POINTS 20 float
6.112863E+01		3.081355E+02		-2.673008E+01
6.112863E+01		3.312295E+02		-2.673008E+01
8.422264E+01		3.312295E+02		-2.673008E+01
8.422264E+01		3.081355E+02		-2.673008E+01
6.112863E+01		3.081355E+02		-3.636074E+00
6.112863E+01		3.312295E+02		-3.636074E+00
8.422264E+01		3.312295E+02		-3.636074E+00
8.422264E+01		3.081355E+02		-3.636074E+00
7.267563E+01		3.125460E+02		-3.386653E+01
7.267563E+01		3.125460E+02		3.500368E+00
7.267563E+01		3.268189E+02		-3.386653E+01
7.267563E+01		3.268189E+02		3.500368E+00
5.399218E+01		3.196825E+02		-2.231952E+01
5.399218E+01		3.196825E+02		-8.046637E+00
9.135908E+01		3.196825E+02		-2.231952E+01
9.135908E+01		3.196825E+02		-8.046637E+00
6.553919E+01		3.009990E+02		-1.518308E+01
6.553919E+01		3.383659E+02		-1.518308E+01
7.981207E+01		3.009990E+02		-1.518308E+01
7.981207E+01		3.383659E+02		-1.518308E+01
POLYGONS 36 144
3		2		1		19
3		6		2		19
3		6		19		5
3		9		7		6
3		10		1		2
3		11		6		5
3		11		9		6
3		12		8		0
3		12		1		10
3		12		10		8
3		13		5		1
3		13		4		9
3		13		11		5
3		13		9		11
3		13		1		12
3		14		2		6
3		14		3		8
3		14		10		2
3		14		8		10
3		15		6		7
3		15		14		6
3		16		0		8
3		16		9		4
3		16		12		0
3		16		4		13
3		16		13		12
3		17		19		1
3		17		1		5
3		17		5		19
3		18		8		3
3		18		7		9
3		18		3		14
3		18		15		7
3		18		14		15
3		18		16		8
3		18		9		16
POINT_DATA 20
scalars NodeType integer
LOOKUP_TABLE default
1
1
1
1
1
1
1
1
1
1
1
1
1
1
1
1
1
1
1
1
CELL_DATA 36
SCALARS SlipSystem integer
LOOKUP_TABLE default
1
1
1
1
1
1
1
1
1
1
1
1
1
1
1
1
1
1
1
1
1
1
1
1
1
1
1
1
1
1
1
1
1
1
1
1
