# vtk DataFile Version 1.0
polyhedron
ASCII
DATASET POLYDATA
POINTS 20 float
-7.714323E+02		-3.499484E+02		-1.753382E+01
-7.714323E+02		-3.268544E+02		-1.753382E+01
-7.483383E+02		-3.268544E+02		-1.753382E+01
-7.483383E+02		-3.499484E+02		-1.753382E+01
-7.714323E+02		-3.499484E+02		5.560193E+00
-7.714323E+02		-3.268544E+02		5.560193E+00
-7.483383E+02		-3.268544E+02		5.560193E+00
-7.483383E+02		-3.499484E+02		5.560193E+00
-7.598853E+02		-3.455378E+02		-2.467026E+01
-7.598853E+02		-3.455378E+02		1.269663E+01
-7.598853E+02		-3.312649E+02		-2.467026E+01
-7.598853E+02		-3.312649E+02		1.269663E+01
-7.785688E+02		-3.384014E+02		-1.312325E+01
-7.785688E+02		-3.384014E+02		1.149630E+00
-7.412019E+02		-3.384014E+02		-1.312325E+01
-7.412019E+02		-3.384014E+02		1.149630E+00
-7.670218E+02		-3.570848E+02		-5.986812E+00
-7.670218E+02		-3.197179E+02		-5.986812E+00
-7.527489E+02		-3.570848E+02		-5.986812E+00
-7.527489E+02		-3.197179E+02		-5.986812E+00
POLYGONS 36 144
3		6		2		19
3		8		3		0
3		9		4		7
3		10		19		2
3		10		2		3
3		10		3		8
3		11		6		19
3		11		7		6
3		11		9		7
3		12		8		0
3		12		1		10
3		12		10		8
3		13		4		9
3		13		11		5
3		13		9		11
3		14		3		2
3		14		2		6
3		14		7		3
3		15		6		7
3		15		14		6
3		15		7		14
3		16		0		3
3		16		7		4
3		16		12		0
3		16		4		13
3		16		13		12
3		17		10		1
3		17		19		10
3		17		5		11
3		17		11		19
3		17		1		12
3		17		13		5
3		17		12		13
3		18		3		7
3		18		16		3
3		18		7		16
POINT_DATA 20
scalars NodeType integer
LOOKUP_TABLE default
1
1
1
1
1
1
1
1
1
1
1
1
1
1
1
1
1
1
1
1
CELL_DATA 36
SCALARS SlipSystem integer
LOOKUP_TABLE default
1
1
1
1
1
1
1
1
1
1
1
1
1
1
1
1
1
1
1
1
1
1
1
1
1
1
1
1
1
1
1
1
1
1
1
1
