# vtk DataFile Version 1.0
polyhedron
ASCII
DATASET POLYDATA
POINTS 20 float
8.329708E+01		5.559440E+02		4.930412E-02
8.329708E+01		5.790380E+02		4.930412E-02
1.063911E+02		5.790380E+02		4.930412E-02
1.063911E+02		5.559440E+02		4.930412E-02
8.329708E+01		5.559440E+02		2.314331E+01
8.329708E+01		5.790380E+02		2.314331E+01
1.063911E+02		5.790380E+02		2.314331E+01
1.063911E+02		5.559440E+02		2.314331E+01
9.484409E+01		5.603546E+02		-7.087138E+00
9.484409E+01		5.603546E+02		3.027976E+01
9.484409E+01		5.746275E+02		-7.087138E+00
9.484409E+01		5.746275E+02		3.027976E+01
7.616064E+01		5.674910E+02		4.459868E+00
7.616064E+01		5.674910E+02		1.873275E+01
1.135275E+02		5.674910E+02		4.459868E+00
1.135275E+02		5.674910E+02		1.873275E+01
8.770764E+01		5.488076E+02		1.159631E+01
8.770764E+01		5.861745E+02		1.159631E+01
1.019805E+02		5.488076E+02		1.159631E+01
1.019805E+02		5.861745E+02		1.159631E+01
POLYGONS 36 144
3		6		2		19
3		8		0		1
3		8		3		0
3		9		4		7
3		9		7		6
3		10		19		2
3		10		2		3
3		10		8		1
3		10		3		8
3		11		6		19
3		11		9		6
3		12		1		0
3		12		0		4
3		13		4		9
3		13		11		5
3		13		9		11
3		13		12		4
3		14		3		2
3		14		2		6
3		15		7		3
3		15		6		7
3		15		3		14
3		15		14		6
3		16		4		0
3		16		7		4
3		17		10		1
3		17		19		10
3		17		5		11
3		17		11		19
3		17		1		12
3		17		13		5
3		17		12		13
3		18		0		3
3		18		3		7
3		18		16		0
3		18		7		16
POINT_DATA 20
scalars NodeType integer
LOOKUP_TABLE default
1
1
1
1
1
1
1
1
1
1
1
1
1
1
1
1
1
1
1
1
CELL_DATA 36
SCALARS SlipSystem integer
LOOKUP_TABLE default
1
1
1
1
1
1
1
1
1
1
1
1
1
1
1
1
1
1
1
1
1
1
1
1
1
1
1
1
1
1
1
1
1
1
1
1
