# vtk DataFile Version 1.0
polyhedron
ASCII
DATASET POLYDATA
POINTS 20 float
-7.849079E+02		-5.437033E+02		-1.888282E+01
-7.849079E+02		-5.206093E+02		-1.888282E+01
-7.618139E+02		-5.206093E+02		-1.888282E+01
-7.618139E+02		-5.437033E+02		-1.888282E+01
-7.849079E+02		-5.437033E+02		4.211191E+00
-7.849079E+02		-5.206093E+02		4.211191E+00
-7.618139E+02		-5.206093E+02		4.211191E+00
-7.618139E+02		-5.437033E+02		4.211191E+00
-7.733609E+02		-5.392928E+02		-2.601926E+01
-7.733609E+02		-5.392928E+02		1.134763E+01
-7.733609E+02		-5.250199E+02		-2.601926E+01
-7.733609E+02		-5.250199E+02		1.134763E+01
-7.920444E+02		-5.321563E+02		-1.447226E+01
-7.920444E+02		-5.321563E+02		-1.993722E-01
-7.546775E+02		-5.321563E+02		-1.447226E+01
-7.546775E+02		-5.321563E+02		-1.993722E-01
-7.804974E+02		-5.508398E+02		-7.335814E+00
-7.804974E+02		-5.134729E+02		-7.335814E+00
-7.662245E+02		-5.508398E+02		-7.335814E+00
-7.662245E+02		-5.134729E+02		-7.335814E+00
POLYGONS 36 144
3		6		2		19
3		9		7		6
3		10		1		2
3		10		2		3
3		10		3		8
3		11		6		5
3		11		9		6
3		12		8		0
3		12		1		10
3		12		10		8
3		13		4		9
3		13		11		5
3		13		9		11
3		14		3		2
3		14		2		6
3		15		7		3
3		15		6		7
3		15		3		14
3		15		14		6
3		16		0		8
3		16		9		4
3		16		12		0
3		16		4		13
3		16		13		12
3		17		19		2
3		17		2		1
3		17		6		19
3		17		5		6
3		17		1		12
3		17		13		5
3		17		12		13
3		18		3		7
3		18		8		3
3		18		7		9
3		18		16		8
3		18		9		16
POINT_DATA 20
scalars NodeType integer
LOOKUP_TABLE default
1
1
1
1
1
1
1
1
1
1
1
1
1
1
1
1
1
1
1
1
CELL_DATA 36
SCALARS SlipSystem integer
LOOKUP_TABLE default
1
1
1
1
1
1
1
1
1
1
1
1
1
1
1
1
1
1
1
1
1
1
1
1
1
1
1
1
1
1
1
1
1
1
1
1
