# vtk DataFile Version 1.0
polyhedron
ASCII
DATASET POLYDATA
POINTS 20 float
8.847770E+01		-6.204554E+02		-1.407475E+01
8.847770E+01		-5.973614E+02		-1.407475E+01
1.115717E+02		-5.973614E+02		-1.407475E+01
1.115717E+02		-6.204554E+02		-1.407475E+01
8.847770E+01		-6.204554E+02		9.019266E+00
8.847770E+01		-5.973614E+02		9.019266E+00
1.115717E+02		-5.973614E+02		9.019266E+00
1.115717E+02		-6.204554E+02		9.019266E+00
1.000247E+02		-6.160448E+02		-2.121119E+01
1.000247E+02		-6.160448E+02		1.615571E+01
1.000247E+02		-6.017719E+02		-2.121119E+01
1.000247E+02		-6.017719E+02		1.615571E+01
8.134126E+01		-6.089084E+02		-9.664181E+00
8.134126E+01		-6.089084E+02		4.608702E+00
1.187082E+02		-6.089084E+02		-9.664181E+00
1.187082E+02		-6.089084E+02		4.608702E+00
9.288826E+01		-6.275918E+02		-2.527740E+00
9.288826E+01		-5.902249E+02		-2.527740E+00
1.071611E+02		-6.275918E+02		-2.527740E+00
1.071611E+02		-5.902249E+02		-2.527740E+00
POLYGONS 36 144
3		8		3		0
3		9		4		7
3		10		0		1
3		10		19		2
3		10		8		0
3		11		6		19
3		12		1		0
3		12		0		4
3		13		4		9
3		13		11		5
3		13		9		11
3		13		12		4
3		14		2		19
3		14		7		3
3		14		3		8
3		14		10		2
3		14		8		10
3		15		19		6
3		15		9		7
3		15		6		11
3		15		11		9
3		15		14		19
3		15		7		14
3		16		0		3
3		16		4		0
3		17		10		1
3		17		19		10
3		17		5		11
3		17		11		19
3		17		1		12
3		17		13		5
3		17		12		13
3		18		7		4
3		18		3		7
3		18		16		3
3		18		4		16
POINT_DATA 20
scalars NodeType integer
LOOKUP_TABLE default
1
1
1
1
1
1
1
1
1
1
1
1
1
1
1
1
1
1
1
1
CELL_DATA 36
SCALARS SlipSystem integer
LOOKUP_TABLE default
1
1
1
1
1
1
1
1
1
1
1
1
1
1
1
1
1
1
1
1
1
1
1
1
1
1
1
1
1
1
1
1
1
1
1
1
