# vtk DataFile Version 1.0
polyhedron
ASCII
DATASET POLYDATA
POINTS 20 float
-4.272713E+02		-7.251730E+02		1.115843E+01
-4.272713E+02		-7.020790E+02		1.115843E+01
-4.041773E+02		-7.020790E+02		1.115843E+01
-4.041773E+02		-7.251730E+02		1.115843E+01
-4.272713E+02		-7.251730E+02		3.425244E+01
-4.272713E+02		-7.020790E+02		3.425244E+01
-4.041773E+02		-7.020790E+02		3.425244E+01
-4.041773E+02		-7.251730E+02		3.425244E+01
-4.157243E+02		-7.207625E+02		4.021988E+00
-4.157243E+02		-7.207625E+02		4.138888E+01
-4.157243E+02		-7.064896E+02		4.021988E+00
-4.157243E+02		-7.064896E+02		4.138888E+01
-4.344077E+02		-7.136260E+02		1.556899E+01
-4.344077E+02		-7.136260E+02		2.984188E+01
-3.970408E+02		-7.136260E+02		1.556899E+01
-3.970408E+02		-7.136260E+02		2.984188E+01
-4.228607E+02		-7.323095E+02		2.270544E+01
-4.228607E+02		-6.949426E+02		2.270544E+01
-4.085878E+02		-7.323095E+02		2.270544E+01
-4.085878E+02		-6.949426E+02		2.270544E+01
POLYGONS 36 144
3		8		0		1
3		9		5		4
3		10		1		2
3		10		8		1
3		11		6		5
3		11		5		9
3		12		1		0
3		12		0		4
3		13		5		1
3		13		4		5
3		13		1		12
3		13		12		4
3		14		2		19
3		14		3		8
3		14		10		2
3		14		8		10
3		15		19		6
3		15		9		7
3		15		6		11
3		15		11		9
3		15		14		19
3		16		4		0
3		16		0		8
3		16		9		4
3		17		19		2
3		17		2		1
3		17		1		5
3		17		6		19
3		17		5		6
3		18		8		3
3		18		7		9
3		18		3		14
3		18		15		7
3		18		14		15
3		18		16		8
3		18		9		16
POINT_DATA 20
scalars NodeType integer
LOOKUP_TABLE default
1
1
1
1
1
1
1
1
1
1
1
1
1
1
1
1
1
1
1
1
CELL_DATA 36
SCALARS SlipSystem integer
LOOKUP_TABLE default
1
1
1
1
1
1
1
1
1
1
1
1
1
1
1
1
1
1
1
1
1
1
1
1
1
1
1
1
1
1
1
1
1
1
1
1
