# vtk DataFile Version 1.0
polyhedron
ASCII
DATASET POLYDATA
POINTS 20 float
4.722001E+01		-6.720098E+01		5.516487E+00
4.722001E+01		-4.410697E+01		5.516487E+00
7.031402E+01		-4.410697E+01		5.516487E+00
7.031402E+01		-6.720098E+01		5.516487E+00
4.722001E+01		-6.720098E+01		2.861050E+01
4.722001E+01		-4.410697E+01		2.861050E+01
7.031402E+01		-4.410697E+01		2.861050E+01
7.031402E+01		-6.720098E+01		2.861050E+01
5.876701E+01		-6.279042E+01		-1.619955E+00
5.876701E+01		-6.279042E+01		3.574694E+01
5.876701E+01		-4.851754E+01		-1.619955E+00
5.876701E+01		-4.851754E+01		3.574694E+01
4.008357E+01		-5.565398E+01		9.927050E+00
4.008357E+01		-5.565398E+01		2.419993E+01
7.745046E+01		-5.565398E+01		9.927050E+00
7.745046E+01		-5.565398E+01		2.419993E+01
5.163057E+01		-7.433743E+01		1.706349E+01
5.163057E+01		-3.697053E+01		1.706349E+01
6.590345E+01		-7.433743E+01		1.706349E+01
6.590345E+01		-3.697053E+01		1.706349E+01
POLYGONS 36 144
3		6		2		19
3		9		5		4
3		9		7		6
3		10		1		2
3		10		2		3
3		10		3		8
3		11		6		5
3		11		5		9
3		11		9		6
3		12		5		1
3		12		8		0
3		12		1		10
3		12		10		8
3		13		4		5
3		13		5		12
3		14		3		2
3		14		2		6
3		15		7		3
3		15		6		7
3		15		3		14
3		15		14		6
3		16		0		8
3		16		9		4
3		16		12		0
3		16		4		13
3		16		13		12
3		17		19		2
3		17		2		1
3		17		1		5
3		17		6		19
3		17		5		6
3		18		3		7
3		18		8		3
3		18		7		9
3		18		16		8
3		18		9		16
POINT_DATA 20
scalars NodeType integer
LOOKUP_TABLE default
1
1
1
1
1
1
1
1
1
1
1
1
1
1
1
1
1
1
1
1
CELL_DATA 36
SCALARS SlipSystem integer
LOOKUP_TABLE default
1
1
1
1
1
1
1
1
1
1
1
1
1
1
1
1
1
1
1
1
1
1
1
1
1
1
1
1
1
1
1
1
1
1
1
1
