# vtk DataFile Version 1.0
polyhedron
ASCII
DATASET POLYDATA
POINTS 20 float
7.309837E+02		4.647609E+02		-5.913887E+01
7.309837E+02		4.878549E+02		-5.913887E+01
7.540778E+02		4.878549E+02		-5.913887E+01
7.540778E+02		4.647609E+02		-5.913887E+01
7.309837E+02		4.647609E+02		-3.604486E+01
7.309837E+02		4.878549E+02		-3.604486E+01
7.540778E+02		4.878549E+02		-3.604486E+01
7.540778E+02		4.647609E+02		-3.604486E+01
7.425307E+02		4.691714E+02		-6.627531E+01
7.425307E+02		4.691714E+02		-2.890841E+01
7.425307E+02		4.834443E+02		-6.627531E+01
7.425307E+02		4.834443E+02		-2.890841E+01
7.238473E+02		4.763079E+02		-5.472830E+01
7.238473E+02		4.763079E+02		-4.045542E+01
7.612142E+02		4.763079E+02		-5.472830E+01
7.612142E+02		4.763079E+02		-4.045542E+01
7.353943E+02		4.576244E+02		-4.759186E+01
7.353943E+02		4.949913E+02		-4.759186E+01
7.496672E+02		4.576244E+02		-4.759186E+01
7.496672E+02		4.949913E+02		-4.759186E+01
POLYGONS 36 144
3		6		2		19
3		6		19		5
3		9		7		6
3		10		0		1
3		10		1		2
3		10		2		3
3		10		8		0
3		10		3		8
3		11		5		4
3		11		6		5
3		11		4		9
3		11		9		6
3		12		1		0
3		12		0		4
3		12		5		1
3		13		4		5
3		13		12		4
3		13		5		12
3		14		3		2
3		15		2		6
3		15		7		3
3		15		6		7
3		15		3		14
3		15		14		2
3		16		4		0
3		16		0		8
3		16		9		4
3		17		19		2
3		17		2		1
3		17		1		5
3		17		5		19
3		18		3		7
3		18		8		3
3		18		7		9
3		18		16		8
3		18		9		16
POINT_DATA 20
scalars NodeType integer
LOOKUP_TABLE default
1
1
1
1
1
1
1
1
1
1
1
1
1
1
1
1
1
1
1
1
CELL_DATA 36
SCALARS SlipSystem integer
LOOKUP_TABLE default
1
1
1
1
1
1
1
1
1
1
1
1
1
1
1
1
1
1
1
1
1
1
1
1
1
1
1
1
1
1
1
1
1
1
1
1
