# vtk DataFile Version 1.0
polyhedron
ASCII
DATASET POLYDATA
POINTS 20 float
6.587772E+02		-3.113133E+02		-2.506987E+01
6.587772E+02		-2.882193E+02		-2.506987E+01
6.818712E+02		-2.882193E+02		-2.506987E+01
6.818712E+02		-3.113133E+02		-2.506987E+01
6.587772E+02		-3.113133E+02		-1.975855E+00
6.587772E+02		-2.882193E+02		-1.975855E+00
6.818712E+02		-2.882193E+02		-1.975855E+00
6.818712E+02		-3.113133E+02		-1.975855E+00
6.703242E+02		-3.069027E+02		-3.220631E+01
6.703242E+02		-3.069027E+02		5.160587E+00
6.703242E+02		-2.926298E+02		-3.220631E+01
6.703242E+02		-2.926298E+02		5.160587E+00
6.516407E+02		-2.997663E+02		-2.065930E+01
6.516407E+02		-2.997663E+02		-6.386418E+00
6.890076E+02		-2.997663E+02		-2.065930E+01
6.890076E+02		-2.997663E+02		-6.386418E+00
6.631877E+02		-3.184497E+02		-1.352286E+01
6.631877E+02		-2.810828E+02		-1.352286E+01
6.774606E+02		-3.184497E+02		-1.352286E+01
6.774606E+02		-2.810828E+02		-1.352286E+01
POLYGONS 36 144
3		6		2		19
3		8		3		0
3		9		4		7
3		10		19		2
3		10		2		3
3		10		3		8
3		11		6		19
3		11		7		6
3		11		9		7
3		12		8		0
3		12		1		10
3		12		10		8
3		13		4		9
3		13		11		5
3		13		9		11
3		14		3		2
3		14		2		6
3		15		7		3
3		15		6		7
3		15		3		14
3		15		14		6
3		16		0		3
3		16		7		4
3		16		12		0
3		16		4		13
3		16		13		12
3		17		10		1
3		17		19		10
3		17		5		11
3		17		11		19
3		17		1		12
3		17		13		5
3		17		12		13
3		18		3		7
3		18		16		3
3		18		7		16
POINT_DATA 20
scalars NodeType integer
LOOKUP_TABLE default
1
1
1
1
1
1
1
1
1
1
1
1
1
1
1
1
1
1
1
1
CELL_DATA 36
SCALARS SlipSystem integer
LOOKUP_TABLE default
1
1
1
1
1
1
1
1
1
1
1
1
1
1
1
1
1
1
1
1
1
1
1
1
1
1
1
1
1
1
1
1
1
1
1
1
