# vtk DataFile Version 1.0
polyhedron
ASCII
DATASET POLYDATA
POINTS 20 float
8.622588E+02		2.693065E+02		2.751227E+01
8.622588E+02		2.924005E+02		2.751227E+01
8.853528E+02		2.924005E+02		2.751227E+01
8.853528E+02		2.693065E+02		2.751227E+01
8.622588E+02		2.693065E+02		5.060628E+01
8.622588E+02		2.924005E+02		5.060628E+01
8.853528E+02		2.924005E+02		5.060628E+01
8.853528E+02		2.693065E+02		5.060628E+01
8.738058E+02		2.737171E+02		2.037583E+01
8.738058E+02		2.737171E+02		5.774273E+01
8.738058E+02		2.879900E+02		2.037583E+01
8.738058E+02		2.879900E+02		5.774273E+01
8.551223E+02		2.808535E+02		3.192284E+01
8.551223E+02		2.808535E+02		4.619572E+01
8.924892E+02		2.808535E+02		3.192284E+01
8.924892E+02		2.808535E+02		4.619572E+01
8.666693E+02		2.621701E+02		3.905928E+01
8.666693E+02		2.995370E+02		3.905928E+01
8.809422E+02		2.621701E+02		3.905928E+01
8.809422E+02		2.995370E+02		3.905928E+01
POLYGONS 36 144
3		6		2		19
3		8		3		0
3		9		4		7
3		10		19		2
3		10		2		3
3		10		3		8
3		11		6		19
3		11		7		6
3		11		9		7
3		12		8		0
3		12		1		10
3		12		10		8
3		13		4		9
3		13		11		5
3		13		9		11
3		14		3		2
3		14		2		6
3		14		7		3
3		15		6		7
3		15		14		6
3		15		7		14
3		16		0		3
3		16		12		0
3		16		4		13
3		16		13		12
3		17		10		1
3		17		19		10
3		17		5		11
3		17		11		19
3		17		1		12
3		17		13		5
3		17		12		13
3		18		7		4
3		18		3		7
3		18		16		3
3		18		4		16
POINT_DATA 20
scalars NodeType integer
LOOKUP_TABLE default
1
1
1
1
1
1
1
1
1
1
1
1
1
1
1
1
1
1
1
1
CELL_DATA 36
SCALARS SlipSystem integer
LOOKUP_TABLE default
1
1
1
1
1
1
1
1
1
1
1
1
1
1
1
1
1
1
1
1
1
1
1
1
1
1
1
1
1
1
1
1
1
1
1
1
