# vtk DataFile Version 1.0
polyhedron
ASCII
DATASET POLYDATA
POINTS 20 float
-8.398879E+02		8.092953E+02		1.263650E+01
-8.398879E+02		8.323893E+02		1.263650E+01
-8.167939E+02		8.323893E+02		1.263650E+01
-8.167939E+02		8.092953E+02		1.263650E+01
-8.398879E+02		8.092953E+02		3.573051E+01
-8.398879E+02		8.323893E+02		3.573051E+01
-8.167939E+02		8.323893E+02		3.573051E+01
-8.167939E+02		8.092953E+02		3.573051E+01
-8.283409E+02		8.137058E+02		5.500058E+00
-8.283409E+02		8.137058E+02		4.286695E+01
-8.283409E+02		8.279787E+02		5.500058E+00
-8.283409E+02		8.279787E+02		4.286695E+01
-8.470243E+02		8.208423E+02		1.704706E+01
-8.470243E+02		8.208423E+02		3.131995E+01
-8.096574E+02		8.208423E+02		1.704706E+01
-8.096574E+02		8.208423E+02		3.131995E+01
-8.354773E+02		8.021588E+02		2.418351E+01
-8.354773E+02		8.395257E+02		2.418351E+01
-8.212044E+02		8.021588E+02		2.418351E+01
-8.212044E+02		8.395257E+02		2.418351E+01
POLYGONS 36 144
3		2		1		19
3		10		0		1
3		10		1		2
3		10		8		0
3		11		5		4
3		11		6		5
3		11		4		9
3		12		1		0
3		12		5		1
3		13		0		4
3		13		4		5
3		13		12		0
3		13		5		12
3		14		2		19
3		14		3		8
3		14		10		2
3		14		8		10
3		15		19		6
3		15		9		7
3		15		6		11
3		15		11		9
3		15		14		19
3		16		4		0
3		16		0		8
3		16		9		4
3		17		19		1
3		17		1		5
3		17		6		19
3		17		5		6
3		18		8		3
3		18		7		9
3		18		3		14
3		18		15		7
3		18		14		15
3		18		16		8
3		18		9		16
POINT_DATA 20
scalars NodeType integer
LOOKUP_TABLE default
1
1
1
1
1
1
1
1
1
1
1
1
1
1
1
1
1
1
1
1
CELL_DATA 36
SCALARS SlipSystem integer
LOOKUP_TABLE default
1
1
1
1
1
1
1
1
1
1
1
1
1
1
1
1
1
1
1
1
1
1
1
1
1
1
1
1
1
1
1
1
1
1
1
1
