# vtk DataFile Version 1.0
polyhedron
ASCII
DATASET POLYDATA
POINTS 20 float
4.750303E+02		-3.357606E+02		-4.744708E+01
4.750303E+02		-3.126666E+02		-4.744708E+01
4.981243E+02		-3.126666E+02		-4.744708E+01
4.981243E+02		-3.357606E+02		-4.744708E+01
4.750303E+02		-3.357606E+02		-2.435307E+01
4.750303E+02		-3.126666E+02		-2.435307E+01
4.981243E+02		-3.126666E+02		-2.435307E+01
4.981243E+02		-3.357606E+02		-2.435307E+01
4.865773E+02		-3.313500E+02		-5.458352E+01
4.865773E+02		-3.313500E+02		-1.721662E+01
4.865773E+02		-3.170771E+02		-5.458352E+01
4.865773E+02		-3.170771E+02		-1.721662E+01
4.678939E+02		-3.242136E+02		-4.303651E+01
4.678939E+02		-3.242136E+02		-2.876363E+01
5.052608E+02		-3.242136E+02		-4.303651E+01
5.052608E+02		-3.242136E+02		-2.876363E+01
4.794409E+02		-3.428970E+02		-3.590007E+01
4.794409E+02		-3.055301E+02		-3.590007E+01
4.937138E+02		-3.428970E+02		-3.590007E+01
4.937138E+02		-3.055301E+02		-3.590007E+01
POLYGONS 36 144
3		8		3		0
3		9		5		4
3		9		4		7
3		10		0		1
3		10		19		2
3		10		8		0
3		11		6		19
3		11		5		9
3		12		1		0
3		12		5		1
3		13		0		4
3		13		4		5
3		13		12		0
3		13		5		12
3		14		2		19
3		14		3		8
3		14		10		2
3		14		8		10
3		15		19		6
3		15		9		7
3		15		6		11
3		15		11		9
3		15		14		19
3		16		0		3
3		16		4		0
3		16		7		4
3		17		1		5
3		17		10		1
3		17		19		10
3		17		5		11
3		17		11		19
3		18		3		14
3		18		15		7
3		18		14		15
3		18		16		3
3		18		7		16
POINT_DATA 20
scalars NodeType integer
LOOKUP_TABLE default
1
1
1
1
1
1
1
1
1
1
1
1
1
1
1
1
1
1
1
1
CELL_DATA 36
SCALARS SlipSystem integer
LOOKUP_TABLE default
1
1
1
1
1
1
1
1
1
1
1
1
1
1
1
1
1
1
1
1
1
1
1
1
1
1
1
1
1
1
1
1
1
1
1
1
