# vtk DataFile Version 1.0
polyhedron
ASCII
DATASET POLYDATA
POINTS 20 float
-9.264422E+02		-9.805652E+02		2.784465E+01
-9.264422E+02		-9.574712E+02		2.784465E+01
-9.033481E+02		-9.574712E+02		2.784465E+01
-9.033481E+02		-9.805652E+02		2.784465E+01
-9.264422E+02		-9.805652E+02		5.093867E+01
-9.264422E+02		-9.574712E+02		5.093867E+01
-9.033481E+02		-9.574712E+02		5.093867E+01
-9.033481E+02		-9.805652E+02		5.093867E+01
-9.148951E+02		-9.761547E+02		2.070821E+01
-9.148951E+02		-9.761547E+02		5.807511E+01
-9.148951E+02		-9.618818E+02		2.070821E+01
-9.148951E+02		-9.618818E+02		5.807511E+01
-9.335786E+02		-9.690182E+02		3.225522E+01
-9.335786E+02		-9.690182E+02		4.652810E+01
-8.962117E+02		-9.690182E+02		3.225522E+01
-8.962117E+02		-9.690182E+02		4.652810E+01
-9.220316E+02		-9.877017E+02		3.939166E+01
-9.220316E+02		-9.503348E+02		3.939166E+01
-9.077587E+02		-9.877017E+02		3.939166E+01
-9.077587E+02		-9.503348E+02		3.939166E+01
POLYGONS 36 144
3		2		1		19
3		6		2		19
3		6		19		5
3		9		5		4
3		9		7		6
3		10		0		1
3		10		1		2
3		10		2		3
3		10		8		0
3		10		3		8
3		11		6		5
3		11		5		9
3		11		9		6
3		12		1		0
3		12		5		1
3		13		0		4
3		13		4		5
3		13		12		0
3		13		5		12
3		14		3		2
3		14		7		3
3		15		2		6
3		15		6		7
3		15		14		2
3		15		7		14
3		16		4		0
3		16		0		8
3		16		9		4
3		17		19		1
3		17		1		5
3		17		5		19
3		18		3		7
3		18		8		3
3		18		7		9
3		18		16		8
3		18		9		16
POINT_DATA 20
scalars NodeType integer
LOOKUP_TABLE default
1
1
1
1
1
1
1
1
1
1
1
1
1
1
1
1
1
1
1
1
CELL_DATA 36
SCALARS SlipSystem integer
LOOKUP_TABLE default
1
1
1
1
1
1
1
1
1
1
1
1
1
1
1
1
1
1
1
1
1
1
1
1
1
1
1
1
1
1
1
1
1
1
1
1
