# vtk DataFile Version 1.0
polyhedron
ASCII
DATASET POLYDATA
POINTS 20 float
-5.206642E+02		-8.348486E+02		5.674018E+00
-5.206642E+02		-8.117546E+02		5.674018E+00
-4.975702E+02		-8.117546E+02		5.674018E+00
-4.975702E+02		-8.348486E+02		5.674018E+00
-5.206642E+02		-8.348486E+02		2.876803E+01
-5.206642E+02		-8.117546E+02		2.876803E+01
-4.975702E+02		-8.117546E+02		2.876803E+01
-4.975702E+02		-8.348486E+02		2.876803E+01
-5.091172E+02		-8.304380E+02		-1.462424E+00
-5.091172E+02		-8.304380E+02		3.590447E+01
-5.091172E+02		-8.161651E+02		-1.462424E+00
-5.091172E+02		-8.161651E+02		3.590447E+01
-5.278007E+02		-8.233016E+02		1.008458E+01
-5.278007E+02		-8.233016E+02		2.435746E+01
-4.904338E+02		-8.233016E+02		1.008458E+01
-4.904338E+02		-8.233016E+02		2.435746E+01
-5.162536E+02		-8.419850E+02		1.722102E+01
-5.162536E+02		-8.046181E+02		1.722102E+01
-5.019808E+02		-8.419850E+02		1.722102E+01
-5.019808E+02		-8.046181E+02		1.722102E+01
POLYGONS 36 144
3		6		2		19
3		8		3		0
3		9		4		7
3		9		7		6
3		10		19		2
3		10		2		3
3		10		3		8
3		11		6		19
3		11		9		6
3		12		8		0
3		12		1		10
3		12		10		8
3		13		0		4
3		13		4		9
3		13		11		5
3		13		9		11
3		13		12		0
3		14		3		2
3		14		2		6
3		15		7		3
3		15		6		7
3		15		3		14
3		15		14		6
3		16		0		3
3		16		4		0
3		17		10		1
3		17		19		10
3		17		5		11
3		17		11		19
3		17		1		12
3		17		13		5
3		17		12		13
3		18		7		4
3		18		3		7
3		18		16		3
3		18		4		16
POINT_DATA 20
scalars NodeType integer
LOOKUP_TABLE default
1
1
1
1
1
1
1
1
1
1
1
1
1
1
1
1
1
1
1
1
CELL_DATA 36
SCALARS SlipSystem integer
LOOKUP_TABLE default
1
1
1
1
1
1
1
1
1
1
1
1
1
1
1
1
1
1
1
1
1
1
1
1
1
1
1
1
1
1
1
1
1
1
1
1
