# vtk DataFile Version 1.0
dislocation microstructure
ASCII
DATASET POLYDATA
POINTS 267 float
-1.407136E+02		-2.213016E+02		3.620151E+02
-4.069171E+02		1.959506E+01		3.873221E+02
-2.678171E+02		5.735064E+02		-3.056893E+02
-3.585793E+02		4.159045E+02		-5.732522E+01
2.435975E+02		5.088909E+02		-7.524885E+02
-3.645297E+01		4.790810E+02		-4.426281E+02
1.137360E+01		4.804267E+01		-5.941627E+01
2.977420E+02		-2.208350E+02		-7.690702E+01
-3.705953E+02		-3.364613E+02		7.070566E+02
-2.633774E+02		-5.962946E+01		3.230069E+02
-5.059046E+01		-1.177741E+02		1.683646E+02
-3.709113E+00		-3.770962E+02		3.808053E+02
-5.645235E+02		3.793574E+02		1.851661E+02
-3.703694E+02		9.044315E+01		2.799262E+02
-5.304416E+02		4.354699E+02		9.497178E+01
-5.136564E+02		1.737037E+02		3.399526E+02
-4.002894E+02		6.227393E+02		-2.224499E+02
-1.296146E+02		4.379697E+02		-3.083551E+02
3.132033E+01		-1.863970E+02		1.550767E+02
-2.594066E+02		2.052232E+02		5.418340E+01
5.559540E+02		2.224913E+01		-5.782031E+02
6.021915E+02		-3.324134E+02		-2.697781E+02
-9.943729E+01		-2.899623E+02		3.893996E+02
3.188077E+01		-5.505567E+02		5.186760E+02
-2.457631E+02		2.346175E+02		1.114560E+01
-1.949524E+01		-1.452330E+02		1.647282E+02
-8.107230E+01		-1.723439E+02		2.534162E+02
6.409874E+02		1.575108E+01		-6.567384E+02
-4.674505E+02		-4.504676E+00		4.719552E+02
-1.041460E+02		-2.153498E+02		3.194958E+02
-1.602988E+02		1.597114E+02		5.874058E-01
-4.428589E+02		-5.941912E+00		4.488008E+02
1.333091E+02		-3.771718E+02		2.438627E+02
-3.762378E+02		6.356497E+02		-2.594119E+02
-4.114821E+02		2.653396E+02		1.461425E+02
-2.877501E+02		5.959474E+02		-3.081973E+02
-3.937371E+02		2.460742E+02		1.476629E+02
7.621159E+02		-4.788912E+01		-7.142268E+02
-5.373025E+02		4.810828E+02		5.621971E+01
-5.933921E+02		1.206061E+02		4.727859E+02
-1.176301E+02		-1.600508E+02		2.776809E+02
6.292980E+02		-6.027706E+01		-5.690209E+02
-1.937834E+01		-1.343092E+02		1.536875E+02
6.868028E+02		-2.305461E+02		-4.562567E+02
2.436889E+02		-1.145777E+02		-1.291113E+02
6.386559E+02		-8.634152E+01		-5.523144E+02
6.920974E+02		9.274963E+01		-7.848470E+02
-5.735010E+02		-2.320248E+01		5.967035E+02
-5.792255E+02		-1.544659E+02		7.336914E+02
-4.842346E+02		-2.960220E+02		7.802567E+02
-4.083573E+02		-3.345325E+02		7.428897E+02
-5.230221E+02		2.123527E+02		3.106694E+02
6.742669E+02		-1.880812E+02		-4.861857E+02
6.550492E+02		-1.318013E+02		-5.232479E+02
-2.923376E+02		1.000281E+03		-7.079435E+02
-5.223235E+02		-2.608163E+02		7.831398E+02
8.419520E+02		-3.142472E+02		-5.277048E+02
2.268864E+02		-4.431894E+02		2.163030E+02
2.182776E+02		-5.111778E+02		2.929001E+02
-5.306529E+02		3.690705E+02		1.615823E+02
-3.962400E+02		5.850909E+02		-1.888509E+02
1.207180E+01		4.021937E+02		-4.142655E+02
-3.410775E+01		4.561486E+02		-4.220409E+02
-5.654062E+02		5.184834E+02		4.692283E+01
-4.920024E+02		4.233080E+02		6.869440E+01
1.645282E+02		4.193965E+02		-5.839247E+02
-5.143664E+02		4.525679E+02		6.179855E+01
8.489470E+02		-2.426264E+02		-6.063206E+02
-2.604651E+02		9.782374E+02		-7.177723E+02
-4.618954E+02		3.767189E+02		8.517642E+01
1.973245E+02		4.911906E+02		-6.885151E+02
3.850504E+02		-4.886981E+02		1.036477E+02
-1.741050E+02		-1.361410E+02		3.102460E+02
-2.820772E+02		6.102185E+02		-3.281413E+02
-1.437266E+02		5.041255E+02		-3.603989E+02
6.882805E+02		-4.876743E+02		-2.006062E+02
-9.498688E+01		1.969829E+02		-1.019960E+02
-2.097411E+02		2.523572E+02		-4.261605E+01
6.991218E+02		-3.020940E+02		-3.970279E+02
8.485423E+02		-2.800529E+02		-5.684895E+02
7.928527E+02		-8.795453E+01		-7.048981E+02
6.683502E+02		2.859606E+01		-6.969463E+02
7.787079E+02		-3.936507E+02		-3.850572E+02
-5.668459E+01		-1.741929E+02		2.308775E+02
-1.696488E+02		5.330263E+02		-3.633775E+02
-1.931197E+01		-3.406744E+02		3.599864E+02
-5.980564E+01		-3.067648E+02		3.665704E+02
1.455291E+02		-5.752849E+02		4.297559E+02
7.641101E+01		-5.732175E+02		4.968065E+02
-4.975460E+02		2.533127E+02		2.442333E+02
2.760702E+02		-4.519467E+02		1.758765E+02
-2.187208E+02		5.709599E+02		-3.522391E+02
8.351111E+02		-1.759832E+02		-6.591278E+02
4.340687E+01		-8.159402E+01		3.818715E+01
-1.451657E+01		4.273570E+02		-4.128404E+02
1.674883E+02		4.431935E+02		-6.106818E+02
-4.686421E+02		2.797134E+02		1.889287E+02
-1.416251E+02		1.364249E+02		5.200210E+00
-1.314277E+01		-2.324637E+02		2.456065E+02
-4.462279E+02		3.492690E+02		9.695891E+01
-5.146021E+02		2.320727E+02		2.825294E+02
6.942533E+02		-4.698804E+02		-2.243728E+02
-4.505288E+02		2.910241E+02		1.595048E+02
-3.528555E+02		9.912300E+01		2.537325E+02
-9.085038E+01		6.347263E+01		2.737775E+01
1.231587E+02		-9.824639E+00		-1.133341E+02
-5.865824E+02		-7.629048E+01		6.628729E+02
-5.439344E+02		1.335205E+01		5.305823E+02
-5.864751E+02		-1.112553E+02		6.977305E+02
-5.533226E+02		-2.177150E+02		7.710376E+02
2.202290E+02		-4.368934E+02		2.166644E+02
-5.308959E+02		2.666119E+01		5.042347E+02
1.665731E+02		-3.983056E+02		2.317325E+02
1.668766E+02		4.763471E+02		-6.432237E+02
-6.120334E+02		5.740364E+02		3.799699E+01
6.333290E+01		7.227988E+02		-7.861317E+02
-3.143142E+02		6.071284E+02		-2.928142E+02
-7.320949E+01		8.342545E+02		-7.610450E+02
-4.664696E+01		1.150073E+02		-6.836033E+01
-4.166065E+02		5.361797E+02		-1.195732E+02
-4.340317E+01		8.159419E+01		-3.819101E+01
2.181920E+02		-8.857426E+01		-1.296178E+02
-1.487721E+02		2.397712E+02		-9.099919E+01
-6.314511E+01		1.536309E+02		-9.048583E+01
8.424596E+02		-2.003672E+02		-6.420925E+02
8.287037E+02		-3.453451E+02		-4.833586E+02
3.328053E+02		-4.661030E+02		1.332977E+02
1.922407E+02		-5.494932E+02		3.572525E+02
-3.363744E+02		6.462634E+02		-3.098890E+02
3.486147E+00		6.890312E+01		-7.238927E+01
-5.820579E+02		-4.752001E+01		6.295779E+02
-5.606597E+02		-2.937922E+00		5.635976E+02
-3.415643E+02		1.038219E+03		-6.966543E+02
6.072163E+02		2.493604E+00		-6.097099E+02
7.265608E+02		-1.139605E+01		-7.151648E+02
4.240762E+02		-5.061525E+02		8.207629E+01
-1.168083E+02		8.720185E+02		-7.552101E+02
-2.429311E+02		-8.981678E+01		3.327479E+02
6.905141E+02		-4.067924E+02		-2.837216E+02
7.393516E+02		-4.075741E+02		-3.317775E+02
-5.637522E+02		6.718739E+01		4.965648E+02
7.658837E+01		7.399083E+02		-8.164967E+02
3.598786E+01		-2.982805E+02		2.622927E+02
2.081762E+00		-2.569653E+02		2.548835E+02
1.403275E+02		3.759293E+02		-5.162567E+02
-5.522807E+02		5.012693E+02		5.101142E+01
-1.065989E+02		8.850157E+01		1.809734E+01
-4.936186E+02		3.466351E+02		1.469835E+02
5.713023E+01		-1.187012E+02		6.157097E+01
-4.450453E+02		-3.205799E+02		7.656252E+02
-1.235217E+02		1.128921E+02		1.062966E+01
-1.237501E+02		4.696243E+02		-3.458742E+02
1.650091E+02		4.997983E+02		-6.648074E+02
-3.469982E+02		1.817657E+02		1.652325E+02
8.077124E+02		-3.724222E+02		-4.352902E+02
7.900638E+01		3.680061E+02		-4.470125E+02
8.268169E+02		-1.514692E+02		-6.753478E+02
5.734905E+02		-5.412119E+02		-3.227860E+01
-2.056513E+02		9.401193E+02		-7.344679E+02
5.086867E+02		-5.346146E+02		2.592787E+01
6.222265E+02		-4.231529E+01		-5.799112E+02
4.494775E+00		7.603207E+02		-7.648155E+02
6.080577E+02		-1.292255E+01		-5.951352E+02
-7.119482E+02		6.815613E+02		3.038685E+01
6.141772E+02		-5.367391E+02		-7.743814E+01
-2.075757E+02		-1.172694E+02		3.248451E+02
-2.336988E+02		2.419004E+02		-8.201650E+00
-1.608808E+02		9.071530E+02		-7.462722E+02
-1.439600E+02		-1.497792E+02		2.937392E+02
5.523549E+02		-5.414743E+02		-1.088060E+01
2.272315E+02		-4.800421E+02		2.528107E+02
-3.981545E+02		4.579037E+02		-5.974920E+01
7.938703E+02		-3.839365E+02		-4.099338E+02
-6.789886E+02		6.471733E+02		3.181531E+01
2.463914E+02		-4.473752E+02		2.009838E+02
-3.190445E+02		1.019909E+03		-7.008645E+02
1.585068E+02		-3.582553E+01		-1.226813E+02
6.962361E+02		-2.742899E+02		-4.219461E+02
2.078982E+02		-5.305208E+02		3.226226E+02
-8.614581E+01		-1.898199E+02		2.759657E+02
-4.695653E+02		3.243425E+02		1.452228E+02
-3.446998E+02		6.164944E+02		-2.717946E+02
-4.155336E+02		5.037366E+02		-8.820307E+01
4.640150E+01		-1.762357E+02		1.298342E+02
-3.372325E+02		1.526876E+02		1.845450E+02
-2.729047E+02		5.903897E+02		-3.174851E+02
6.858085E+02		-3.599828E+02		-3.258257E+02
-3.600494E+02		6.452479E+02		-2.851985E+02
-8.157866E+01		4.373759E+01		3.784106E+01
-7.222576E+02		6.919561E+02		3.030149E+01
-6.394633E+02		6.044134E+02		3.504994E+01
2.756786E+02		-1.524287E+02		-1.232500E+02
6.992356E+02		1.172611E+02		-8.164967E+02
-4.153360E+01		-1.668689E+02		2.084025E+02
1.134903E+02		3.654321E+02		-4.789224E+02
-3.385421E+02		1.209665E+02		2.175756E+02
6.223357E+01		1.465697E+01		-7.689054E+01
-5.061376E+02		9.380310E+00		4.967573E+02
2.388920E+02		4.917666E+02		-7.306586E+02
6.766970E+02		-5.015353E+02		-1.751617E+02
-4.109915E+02		5.591982E+02		-1.482066E+02
-4.232177E+02		3.021947E+02		1.210230E+02
7.169567E+02		-4.098821E+02		-3.070746E+02
-2.607427E+02		5.908101E+02		-3.300674E+02
1.142528E+02		-5.788654E+02		4.646125E+02
1.714700E+02		-5.649637E+02		3.934937E+02
-3.056757E+01		-1.376253E+02		1.681929E+02
1.052466E+02		-3.580534E+02		2.528068E+02
-5.800480E+02		9.275526E+01		4.872927E+02
2.204623E+02		4.866443E+02		-7.071066E+02
-2.767505E+01		-2.077146E+02		2.353896E+02
-3.811720E+02		6.276152E+02		-2.464432E+02
-5.875446E+02		5.458282E+02		4.171637E+01
-3.594660E+02		1.054748E+03		-6.952818E+02
5.492700E+01		-1.602960E+02		1.053690E+02
6.818251E+02		5.101230E+01		-7.328374E+02
-3.675927E+02		2.145149E+02		1.530777E+02
-5.210838E+01		-2.838419E+01		8.049257E+01
-1.206265E+02		2.209867E+02		-1.003602E+02
6.981255E+02		-3.298907E+02		-3.682348E+02
-3.090960E+02		6.351463E+02		-3.260504E+02
6.269727E+02		-3.476074E+02		-2.793653E+02
-2.996598E+01		-6.673480E+01		9.670078E+01
-2.394945E+02		2.314940E+02		8.000465E+00
-3.809847E+02		4.339418E+02		-5.295710E+01
1.901797E+02		-4.141467E+02		2.239671E+02
-3.391528E+01		7.976099E+02		-7.636946E+02
-2.105579E+01		-1.004606E+02		1.215164E+02
3.999424E+01		7.283285E+02		-7.683227E+02
-4.095338E+02		4.822298E+02		-7.269597E+01
6.332496E+02		-5.317232E+02		-1.015264E+02
6.872735E+02		7.155691E+01		-7.588304E+02
4.647424E+02		-5.218977E+02		5.715538E+01
6.841815E+02		2.281632E+01		-7.069978E+02
-4.186170E+02		3.247420E+00		4.153695E+02
7.266259E+01		-3.328623E+02		2.601997E+02
7.597456E+02		-4.021112E+02		-3.576344E+02
9.397495E+01		7.096478E+00		-1.010714E+02
-5.849656E+02		2.131520E+02		3.718136E+02
5.840312E+01		-1.419235E+02		8.352040E+01
-1.934477E+02		5.530578E+02		-3.596102E+02
5.945767E+02		-5.408732E+02		-5.370356E+01
3.561347E+02		-4.756741E+02		1.195395E+02
-6.025253E+02		1.484425E+02		4.540827E+02
6.643239E+02		-5.144996E+02		-1.498243E+02
4.338791E+01		3.817846E+02		-4.251725E+02
1.574724E+02		3.971122E+02		-5.545846E+02
-5.248517E+02		1.929787E+02		3.318731E+02
-4.760368E+02		3.996334E+02		7.640340E+01
-3.738144E+02		6.227377E+02		-2.489233E+02
-1.821637E+02		2.518395E+02		-6.967585E+01
-2.337787E+02		9.598662E+02		-7.260875E+02
6.685252E+02		-3.624383E+02		-3.060869E+02
2.976396E+02		-1.893095E+02		-1.083300E+02
5.952108E+02		3.518630E+00		-5.987294E+02
6.646860E+02		-1.593052E+02		-5.053807E+02
-5.460358E+02		2.075115E+02		3.385243E+02
1.898109E+02		-6.223514E+01		-1.275757E+02
6.997222E+02		-4.515252E+02		-2.481969E+02
-5.690857E+02		-1.851881E+02		7.542739E+02
-1.980918E+02		1.985569E+02		-4.651086E-01
-1.805538E+02		1.818215E+02		-1.267691E+00
8.118668E+02		-1.196270E+02		-6.922398E+02
2.982764E+02		-4.554857E+02		1.572092E+02
-6.048983E+02		1.867495E+02		4.181488E+02
-3.854261E+02		5.987824E+02		-2.133563E+02
-4.846922E+02		2.658868E+02		2.188054E+02
LINES 259 777
2		0		29
2		1		234
2		2		185
2		3		224
2		4		198
2		5		62
2		6		129
2		7		253
2		8		50
2		9		137
2		10		206
2		11		85
2		12		59
2		13		103
2		14		66
2		15		247
2		16		211
2		17		151
2		18		183
2		19		223
2		20		254
2		21		221
2		22		86
2		23		88
2		24		223
2		25		206
2		26		179
2		26		40
2		26		83
2		27		81
2		27		133
2		28		197
2		28		31
2		29		179
2		30		261
2		30		97
2		31		234
2		32		207
2		32		112
2		33		187
2		33		211
2		34		102
2		34		36
2		34		201
2		35		116
2		35		185
2		36		216
2		37		134
2		37		80
2		38		66
2		38		145
2		39		243
2		39		208
2		40		168
2		41		160
2		41		45
2		42		227
2		42		206
2		43		177
2		43		52
2		44		121
2		44		191
2		45		53
2		46		231
2		46		192
2		47		130
2		47		131
2		48		108
2		48		259
2		49		149
2		49		55
2		50		149
2		51		247
2		51		100
2		52		255
2		53		255
2		54		175
2		54		68
2		55		109
2		56		125
2		56		79
2		57		170
2		57		110
2		58		170
2		58		178
2		59		147
2		60		200
2		60		265
2		61		245
2		61		94
2		62		94
2		63		212
2		63		145
2		64		248
2		64		66
2		65		246
2		65		95
2		67		124
2		67		79
2		68		251
2		69		99
2		69		248
2		70		209
2		70		152
2		71		135
2		71		242
2		72		165
2		72		168
2		73		220
2		73		185
2		74		151
2		74		84
2		75		199
2		75		101
2		76		123
2		76		218
2		77		166
2		77		250
2		78		219
2		78		177
2		80		262
2		81		233
2		81		215
2		82		236
2		82		172
2		83		193
2		84		240
2		85		86
2		87		204
2		87		205
2		88		204
2		89		100
2		89		266
2		90		263
2		90		174
2		91		203
2		91		240
2		92		156
2		92		124
2		93		148
2		95		113
2		96		102
2		96		266
2		97		150
2		98		210
2		98		143
2		99		201
2		101		258
2		102		180
2		103		195
2		104		188
2		104		146
2		105		176
2		105		237
2		106		108
2		106		130
2		107		111
2		107		131
2		109		259
2		110		174
2		110		225
2		111		197
2		111		140
2		112		225
2		113		152
2		114		212
2		114		190
2		115		141
2		115		228
2		116		181
2		117		136
2		117		226
2		118		123
2		118		120
2		119		200
2		119		182
2		121		257
2		122		250
2		122		218
2		125		154
2		126		242
2		126		263
2		127		205
2		127		178
2		128		187
2		128		220
2		132		175
2		132		213
2		133		254
2		134		233
2		135		232
2		136		167
2		137		165
2		138		252
2		138		258
2		138		202
2		139		202
2		139		236
2		140		208
2		142		235
2		142		143
2		144		246
2		144		194
2		146		150
2		147		180
2		148		239
2		153		184
2		153		216
2		154		172
2		155		245
2		155		194
2		156		262
2		157		241
2		157		169
2		158		167
2		158		251
2		159		232
2		159		169
2		160		162
2		161		226
2		161		228
2		162		254
2		163		173
2		163		189
2		164		241
2		164		230
2		166		223
2		171		224
2		171		229
2		173		190
2		176		257
2		181		249
2		182		229
2		183		214
2		184		195
2		185		203
2		186		219
2		186		252
2		191		253
2		193		206
2		193		210
2		196		237
2		198		209
2		199		244
2		207		235
2		211		249
2		214		239
2		215		231
2		217		222
2		221		252
2		222		227
2		223		260
2		230		244
2		238		256
2		238		264
2		243		264
2		247		256
2		249		265
2		260		261
POINT_DATA 267
scalars NodeType integer
LOOKUP_TABLE default
7
7
7
7
7
7
7
7
7
7
7
7
7
7
7
7
7
7
7
7
7
7
7
7
7
7
0
0
0
0
0
0
0
0
0
0
0
0
0
0
0
0
0
0
0
0
0
0
0
0
0
0
0
0
0
0
0
0
0
0
0
0
0
0
0
0
0
0
0
0
0
0
0
0
0
0
0
0
0
0
0
0
0
0
0
0
0
0
0
0
0
0
0
9
0
0
0
0
0
0
0
0
0
0
0
0
0
0
0
0
0
0
0
0
0
0
0
0
0
0
9
0
0
0
0
0
0
0
0
9
0
0
0
0
0
0
0
0
0
0
0
8
0
0
0
0
0
0
0
0
0
0
0
0
0
0
0
0
0
0
0
0
0
0
0
0
0
0
0
0
0
0
0
0
0
0
0
0
0
0
0
0
0
0
0
0
0
0
9
8
0
0
8
0
0
0
9
0
0
0
0
0
0
0
0
0
0
0
0
0
0
0
0
8
0
0
0
9
0
0
0
0
0
0
0
0
0
0
0
0
0
0
0
0
0
0
0
0
0
0
0
0
0
0
0
0
0
0
0
0
0
0
0
0
0
0
0
0
0
0
0
0
0
0
0
0
0
CELL_DATA 259
SCALARS SlipSystem integer
LOOKUP_TABLE default
3
3
3
3
1
1
1
1
2
2
2
2
2
2
2
2
1
1
3
3
2
2
2
2
1
1
3
2
1
3
3
3
3
3
1
1
3
3
3
3
3
1
2
3
1
1
2
2
2
1
1
1
1
2
1
1
1
1
1
1
1
1
1
1
1
2
2
2
2
2
2
2
3
3
1
1
1
1
2
2
2
2
2
2
2
2
3
3
1
1
1
1
1
3
3
1
1
2
2
1
3
3
1
1
1
1
2
2
3
3
1
1
1
1
3
3
3
3
1
1
2
2
1
2
2
1
1
2
2
2
2
3
3
1
1
1
1
2
2
3
1
3
3
1
3
3
3
1
2
2
1
1
1
1
2
2
2
2
2
1
3
3
1
3
1
1
1
1
1
1
1
1
3
3
3
3
1
3
3
2
1
1
2
2
3
3
1
1
3
2
1
1
2
3
1
2
2
2
1
3
3
1
1
1
2
3
2
2
2
1
1
2
1
1
1
1
1
1
1
1
1
1
1
1
1
1
3
3
3
1
1
1
3
3
2
1
1
1
1
2
3
1
1
1
3
2
3
1
1
2
1
1
1
1
1
1
1
3
1
