# vtk DataFile Version 1.0
dislocation microstructure
ASCII
DATASET POLYDATA
POINTS 241 float
-1.407136E+02		-2.213016E+02		3.620151E+02
-4.069171E+02		1.959506E+01		3.873221E+02
-2.678171E+02		5.735064E+02		-3.056893E+02
-3.585793E+02		4.159045E+02		-5.732522E+01
2.435975E+02		5.088909E+02		-7.524885E+02
-3.645297E+01		4.790810E+02		-4.426281E+02
1.137360E+01		4.804267E+01		-5.941627E+01
2.977420E+02		-2.208350E+02		-7.690702E+01
-3.705953E+02		-3.364613E+02		7.070566E+02
-2.633774E+02		-5.962946E+01		3.230069E+02
-5.059046E+01		-1.177741E+02		1.683646E+02
-3.709113E+00		-3.770962E+02		3.808053E+02
-5.645235E+02		3.793574E+02		1.851661E+02
-3.703694E+02		9.044315E+01		2.799262E+02
-5.304416E+02		4.354699E+02		9.497178E+01
-5.136564E+02		1.737037E+02		3.399526E+02
-4.002894E+02		6.227393E+02		-2.224499E+02
-1.296146E+02		4.379697E+02		-3.083551E+02
3.132033E+01		-1.863970E+02		1.550767E+02
-2.594066E+02		2.052232E+02		5.418340E+01
5.559540E+02		2.224913E+01		-5.782031E+02
6.021915E+02		-3.324134E+02		-2.697781E+02
-9.943729E+01		-2.899623E+02		3.893996E+02
3.188077E+01		-5.505567E+02		5.186760E+02
-2.457631E+02		2.346175E+02		1.114560E+01
-1.949524E+01		-1.452330E+02		1.647282E+02
-1.401769E+02		-9.486755E+01		2.350444E+02
4.915011E+02		1.460780E+02		-6.375792E+02
-1.270666E+02		-1.373103E+02		2.643769E+02
-1.236480E+02		-1.950463E+02		3.186942E+02
-2.430829E+02		9.520591E+01		1.478770E+02
-4.379427E+02		2.383547E+01		4.141072E+02
-4.285148E+02		5.748013E+02		-1.462865E+02
-3.668988E+02		6.238228E+02		-2.569240E+02
-3.121004E+02		2.377626E+02		7.433774E+01
-4.176941E+02		4.975927E+02		-7.989865E+01
-3.941707E+02		4.478209E+02		-5.365022E+01
7.182811E+02		-7.160364E+01		-6.466774E+02
4.764925E+02		1.306296E+02		-6.071221E+02
4.241736E+02		9.134473E+00		-4.333081E+02
5.475508E+02		-3.277618E+02		-2.197890E+02
4.601017E+02		-4.607387E+01		-4.140278E+02
-1.394379E+02		-6.872215E+01		2.081600E+02
5.336248E+02		-1.952194E+02		-3.384053E+02
-4.072764E+02		4.727887E+02		-6.551227E+01
4.783620E+02		-7.627955E+01		-4.020825E+02
5.515190E+02		-2.991418E+02		-2.523772E+02
-5.115688E+02		-6.617476E+01		5.777436E+02
-5.139764E+02		-1.749597E+02		6.889361E+02
-4.668564E+02		-2.756030E+02		7.424594E+02
-4.116604E+02		-3.207455E+02		7.324059E+02
-4.774730E+02		8.012144E+00		4.694609E+02
5.220270E+02		-1.638148E+02		-3.582123E+02
5.017658E+02		-1.193224E+02		-3.824433E+02
-3.087629E+02		8.564321E+02		-5.476692E+02
-4.870642E+02		-2.478262E+02		7.348904E+02
7.715735E+02		-2.676506E+02		-5.039229E+02
1.612009E+02		-4.098760E+02		2.486751E+02
1.540310E+02		-4.666597E+02		3.126287E+02
-5.307059E+02		3.651617E+02		1.655442E+02
-2.583499E+02		1.802019E+02		7.814802E+01
-2.798524E+02		1.248734E+02		1.549790E+02
-3.205987E+02		1.290286E+02		1.915701E+02
-4.092431E+02		4.195394E+02		-1.029630E+01
-4.912803E+02		4.451021E+02		4.617820E+01
-4.441799E+02		2.064271E+02		2.377528E+02
-4.753072E+02		1.742898E+02		3.010174E+02
7.724320E+02		-2.100517E+02		-5.623803E+02
-2.829573E+02		8.423801E+02		-5.594228E+02
-3.847260E+02		3.745545E+02		1.017156E+01
-3.391790E+01		6.273328E+02		-5.934149E+02
3.939158E+02		-3.632245E+02		-3.069132E+01
-1.820547E+02		-9.318661E+01		2.752413E+02
-2.930085E+02		6.027294E+02		-3.097209E+02
1.612920E+02		-3.849754E+02		2.236834E+02
5.365541E+02		-3.538926E+02		-1.826615E+02
-1.124805E+02		1.763835E+02		-6.390301E+01
-1.977452E+02		2.243819E+02		-2.663669E+01
-2.435661E+02		2.238959E+02		1.967020E+01
7.739395E+02		-2.395500E+02		-5.343895E+02
7.359132E+02		-9.829164E+01		-6.376215E+02
6.378594E+02		2.270667E+00		-6.401300E+02
7.326062E+02		-3.396951E+02		-3.929111E+02
6.706283E+02		-3.583706E+02		-3.122577E+02
-1.812334E+02		4.587763E+02		-2.775429E+02
-2.124783E+01		-3.399403E+02		3.611882E+02
-6.061612E+01		-3.070636E+02		3.676797E+02
1.162630E+02		-5.380837E+02		4.218206E+02
7.183388E+01		-5.561090E+02		4.842751E+02
-4.561598E+02		1.873319E+02		2.688279E+02
1.694754E+02		-2.945444E+02		1.250690E+02
-2.038645E+02		4.584829E+02		-2.546185E+02
-3.965447E+02		4.106536E+02		-1.410889E+01
4.379465E+01		-8.157581E+01		3.778116E+01
-2.007802E+00		4.611846E+02		-4.591768E+02
2.626266E+01		5.076614E+02		-5.339241E+02
-4.408325E+02		2.538490E+02		1.869835E+02
-4.583948E+02		2.974168E+02		1.609779E+02
-3.319934E+02		2.646477E+02		6.734577E+01
-3.753454E+02		3.495318E+02		2.581355E+01
-3.964828E+02		6.087563E+02		-2.122735E+02
-4.280481E+02		5.424719E+02		-1.144238E+02
1.768795E+02		-2.241704E+02		4.729091E+01
4.036782E+02		8.780736E+01		-4.914856E+02
-1.915738E+02		3.574368E+01		1.558301E+02
4.079345E+02		3.457143E+01		-4.425059E+02
-5.175313E+02		-1.130324E+02		6.305637E+02
-4.995549E+02		-2.629451E+01		5.258494E+02
-5.176377E+02		-1.410560E+02		6.586937E+02
-5.020636E+02		-2.179651E+02		7.200287E+02
-4.573535E+02		2.155819E+01		4.357953E+02
-4.903734E+02		-8.354976E+00		4.987284E+02
1.367534E+02		-3.024096E+02		1.656562E+02
1.588169E+02		-3.570030E+02		1.981861E+02
-2.629961E+02		1.352556E+02		1.277405E+02
-3.993201E+02		4.282176E+02		-2.889743E+01
-2.648144E+02		4.659691E+02		-2.011547E+02
-1.402668E+02		7.402510E+02		-5.999842E+02
-6.046718E+01		1.164188E+02		-5.595157E+01
4.194423E+02		9.585665E+01		-5.152990E+02
-4.418576E+01		8.155475E+01		-3.736899E+01
1.409304E+02		-1.520044E+02		1.107403E+01
-1.520286E+02		2.048517E+02		-5.282309E+01
-8.202358E+01		1.458790E+02		-6.385546E+01
7.669785E+02		-1.782152E+02		-5.887633E+02
7.647158E+02		-2.942706E+02		-4.704451E+02
3.584131E+02		-3.406162E+02		-1.779689E+01
1.417361E+02		-5.038815E+02		3.621455E+02
-3.297111E+02		6.220488E+02		-2.923377E+02
3.909065E+00		6.867506E+01		-7.258413E+01
-5.153128E+02		-8.846030E+01		6.037731E+02
-5.064011E+02		-4.555519E+01		5.519563E+02
-3.642103E+02		8.824292E+02		-5.182190E+02
5.895567E+02		2.250235E+01		-6.120591E+02
6.979735E+02		-4.653084E+01		-6.514426E+02
-4.533058E+02		1.539667E+02		2.993391E+02
-1.729251E+02		7.674783E+02		-5.945532E+02
-2.364350E+02		-7.702314E+01		3.134581E+02
6.331025E+02		-3.508555E+02		-2.822469E+02
7.048957E+02		-3.540200E+02		-3.508757E+02
5.220909E+02		2.171705E+02		-7.392614E+02
2.127254E+02		6.037713E+02		-8.164967E+02
6.226533E+01		-2.631651E+02		2.008998E+02
3.502125E+01		-2.406913E+02		2.056701E+02
-3.937074E+02		8.935369E+02		-4.998294E+02
-4.626599E+02		5.943740E+02		-1.317141E+02
-6.172335E+00		5.862967E+02		-5.801244E+02
-4.962027E+02		3.409088E+02		1.552939E+02
5.306080E+01		-1.189792E+02		6.591837E+01
-4.400542E+02		-3.014379E+02		7.414921E+02
-2.156992E+02		6.589220E+01		1.498070E+02
-1.551904E+02		4.525496E+02		-2.973592E+02
1.617315E+01		5.421262E+02		-5.582994E+02
3.017702E+02		-2.822971E+02		-1.947306E+01
7.521027E+02		-3.189965E+02		-4.331062E+02
3.265285E+02		-3.125593E+02		-1.396919E+01
7.560659E+02		-1.416433E+02		-6.144226E+02
-5.140633E+02		4.437659E+02		7.029736E+01
-2.394277E+02		8.156796E+02		-5.762519E+02
3.869771E+02		7.162260E+01		-4.585998E+02
4.414563E+02		-1.708767E+01		-4.243686E+02
-8.546355E+01		6.878866E+02		-6.024230E+02
4.364299E+02		1.039732E+02		-5.404031E+02
-5.851250E+02		7.433865E+02		-1.582615E+02
-1.970650E+01		-1.450841E+02		1.647906E+02
-2.077705E+02		-8.760646E+01		2.953770E+02
-2.216032E+02		2.269219E+02		-5.318615E+00
-2.054009E+02		7.921506E+02		-5.867496E+02
-4.301513E+02		5.665138E+02		-1.363625E+02
4.784141E+02		-3.854196E+02		-9.299451E+01
1.588194E+02		-4.385016E+02		2.796822E+02
-2.697677E+02		1.980277E+02		7.173998E+01
-4.688282E+02		9.112954E+02		-4.424672E+02
-5.649502E+02		7.047117E+02		-1.397616E+02
1.758106E+02		-2.770374E+02		1.012269E+02
-3.343244E+02		8.692073E+02		-5.348829E+02
1.101543E+02		-1.160002E+02		5.845917E+00
5.426058E+02		-2.259419E+02		-3.166638E+02
1.494087E+02		-4.837972E+02		3.343885E+02
-1.222576E+02		-1.668111E+02		2.890687E+02
-5.059255E+02		9.082882E+02		-4.023627E+02
-3.591855E+02		4.570180E+02		-9.783249E+01
-4.521579E+02		4.370653E+02		1.509263E+01
4.350619E+01		-1.730012E+02		1.294951E+02
-3.446544E+02		1.244535E+02		2.202009E+02
5.044231E+02		1.642854E+02		-6.687085E+02
-2.564215E+02		1.544676E+02		1.019539E+02
-3.365042E+02		4.661312E+02		-1.296270E+02
-1.695474E+02		3.067505E+00		1.664799E+02
-5.997018E+02		8.145119E+02		-2.148100E+02
-5.393851E+02		6.680220E+02		-1.286369E+02
2.840249E+02		-2.453788E+02		-3.864604E+01
5.231139E+02		2.419119E+02		-7.650258E+02
-1.223930E+01		-1.735706E+02		1.858099E+02
2.444750E+01		4.744975E+02		-4.989450E+02
-3.655228E+02		1.070380E+02		2.584849E+02
7.844104E+01		-9.038330E+01		1.194226E+01
-4.612743E+02		4.829834E+01		4.129760E+02
2.059640E+02		5.636682E+02		-7.696322E+02
5.203672E+02		2.684358E+02		-7.888030E+02
1.818850E+02		-2.594022E+02		7.751715E+01
-3.553526E+02		3.047165E+02		5.063607E+01
5.109080E+02		3.055887E+02		-8.164967E+02
-2.240435E+02		4.600342E+02		-2.359907E+02
9.662450E+01		-5.499780E+02		4.533535E+02
1.309690E+02		-5.223058E+02		3.913368E+02
-3.811217E+02		4.367222E+02		-5.560059E+01
5.132751E+02		2.962541E+02		-8.095292E+02
-4.827670E+02		8.973376E+01		3.930333E+02
2.215338E+02		5.311423E+02		-7.526761E+02
5.270250E+00		-2.055355E+02		2.002652E+02
-3.938134E+02		5.938136E+02		-2.000003E+02
-5.034742E+02		6.284259E+02		-1.249517E+02
-4.307354E+02		9.044389E+02		-4.737035E+02
5.072953E+01		-1.572396E+02		1.065101E+02
1.637501E+02		-1.901224E+02		2.637226E+01
-4.921124E+02		9.119605E+02		-4.198481E+02
-1.351913E+02		-1.095795E+02		2.447708E+02
-3.004347E+02		4.688277E+02		-1.683930E+02
5.496354E+02		-2.623359E+02		-2.872995E+02
-3.974027E+02		1.343044E+02		2.630983E+02
-5.997875E+02		7.898016E+02		-1.900141E+02
-1.473244E+02		-4.087756E+01		1.882019E+02
-2.468258E+02		2.050268E+02		4.179904E+01
1.520766E+02		-3.281838E+02		1.761072E+02
-4.257772E+02		1.484048E+02		2.773724E+02
-1.123310E+02		7.147360E+02		-6.024050E+02
4.573852E+02		1.160522E+02		-5.734374E+02
-5.950510E+01		6.592055E+02		-5.997004E+02
-4.733997E+02		1.473334E+02		3.260663E+02
5.130812E+02		-3.761012E+02		-1.369800E+02
5.155633E+02		1.885208E+02		-7.040840E+02
4.368098E+02		-3.803825E+02		-5.642737E+01
6.687924E+02		-1.911385E+01		-6.496785E+02
-3.610327E+02		1.143343E+02		2.466984E+02
9.027703E+01		-2.808657E+02		1.905887E+02
-4.393553E+02		2.275233E+02		2.118320E+02
-4.096951E+02		5.831168E+02		-1.734218E+02
-4.855126E+02		1.302182E+02		3.552944E+02
5.386254E+01		-1.394607E+02		8.559814E+01
2.079254E+02		5.843930E+02		-7.923184E+02
LINES 232 696
2		0		29
2		1		31
2		2		73
2		3		206
2		4		209
2		5		94
2		6		129
2		7		191
2		8		50
2		9		137
2		10		164
2		11		85
2		12		59
2		13		195
2		14		157
2		15		66
2		16		211
2		17		151
2		18		183
2		19		223
2		20		133
2		21		138
2		22		86
2		23		88
2		24		223
2		25		164
2		26		217
2		26		72
2		26		42
2		27		185
2		27		38
2		28		179
2		28		217
2		29		179
2		30		150
2		30		61
2		31		110
2		31		197
2		32		145
2		32		168
2		32		237
2		33		100
2		33		128
2		34		171
2		34		98
2		35		101
2		35		44
2		36		44
2		36		206
2		37		134
2		37		80
2		38		227
2		39		160
2		39		105
2		40		75
2		40		46
2		41		160
2		41		45
2		42		222
2		43		177
2		43		52
2		45		53
2		46		219
2		47		130
2		47		131
2		48		108
2		48		109
2		49		149
2		49		55
2		50		149
2		51		110
2		51		111
2		52		53
2		54		175
2		54		68
2		55		109
2		56		125
2		56		79
2		57		170
2		57		74
2		58		170
2		58		178
2		59		147
2		60		171
2		60		186
2		61		62
2		61		114
2		62		184
2		63		92
2		63		182
2		64		182
2		64		157
2		65		89
2		65		236
2		66		89
2		67		124
2		67		79
2		68		158
2		69		99
2		69		92
2		70		146
2		70		228
2		71		232
2		71		126
2		72		165
2		73		128
2		74		113
2		75		230
2		76		122
2		76		123
2		77		122
2		77		166
2		78		166
2		78		223
2		80		156
2		81		133
2		81		233
2		82		139
2		82		154
2		83		139
2		83		138
2		84		151
2		84		91
2		85		86
2		87		204
2		87		205
2		88		204
2		90		112
2		90		174
2		91		203
2		92		115
2		93		148
2		93		196
2		94		194
2		95		152
2		95		194
2		96		236
2		96		97
2		97		147
2		98		201
2		99		201
2		100		211
2		101		168
2		102		215
2		102		200
2		103		119
2		103		159
2		104		188
2		104		150
2		105		159
2		106		108
2		106		130
2		107		111
2		107		131
2		112		235
2		112		224
2		113		224
2		114		186
2		115		206
2		116		203
2		116		218
2		117		136
2		117		226
2		118		123
2		118		120
2		119		162
2		121		215
2		121		176
2		124		156
2		125		154
2		126		155
2		127		205
2		127		178
2		132		175
2		132		144
2		134		233
2		135		225
2		135		229
2		136		167
2		137		165
2		140		231
2		140		192
2		141		240
2		142		235
2		142		143
2		143		210
2		144		213
2		145		212
2		146		152
2		148		239
2		153		191
2		153		155
2		158		167
2		161		226
2		161		228
2		162		227
2		163		221
2		163		173
2		164		193
2		169		232
2		169		230
2		171		223
2		172		213
2		172		216
2		173		190
2		174		200
2		176		196
2		177		219
2		180		216
2		181		187
2		181		206
2		183		214
2		184		234
2		185		231
2		187		218
2		188		222
2		189		221
2		190		212
2		192		199
2		193		210
2		195		234
2		195		220
2		197		208
2		198		240
2		198		209
2		199		207
2		202		207
2		208		238
2		211		237
2		214		239
2		220		225
2		229		238
POINT_DATA 241
scalars NodeType integer
LOOKUP_TABLE default
7
7
7
7
7
7
7
7
7
7
7
7
7
7
7
7
7
7
7
7
7
7
7
7
7
7
0
0
0
0
0
0
0
0
0
0
0
0
0
0
0
0
0
0
0
0
0
0
0
0
0
0
0
0
0
0
0
0
0
0
0
0
0
0
0
0
0
0
0
0
0
0
0
0
0
0
0
0
0
0
0
0
0
0
0
0
0
0
0
0
0
0
0
9
0
0
0
0
0
0
0
0
0
0
0
0
0
0
0
0
0
0
0
0
0
0
0
0
0
0
9
0
0
0
0
0
0
0
0
9
0
0
0
0
0
0
0
0
0
0
0
8
0
0
0
0
0
0
0
0
0
0
0
0
0
0
0
0
0
0
0
0
0
0
0
0
0
0
0
0
0
0
0
0
0
0
0
0
0
0
8
0
0
0
0
0
0
0
0
8
0
0
0
0
0
0
0
0
0
0
0
0
8
0
0
0
0
0
0
0
0
0
0
0
0
0
0
0
0
0
0
0
0
0
0
0
0
0
0
0
0
0
0
0
0
0
0
0
0
0
0
CELL_DATA 232
SCALARS SlipSystem integer
LOOKUP_TABLE default
3
3
3
3
1
1
1
1
2
2
2
2
2
2
2
2
1
1
3
3
2
2
2
2
1
1
3
2
1
1
1
3
3
3
1
1
2
1
1
3
2
3
3
3
3
3
3
3
3
2
2
1
1
1
1
1
1
1
1
1
1
1
1
2
2
2
2
2
2
2
2
2
1
1
1
2
2
2
2
2
2
2
2
2
2
3
2
3
2
2
2
2
2
2
2
2
2
1
3
3
1
1
1
1
2
3
2
1
3
3
3
3
3
3
2
2
2
2
2
2
2
1
1
2
2
2
2
1
1
1
1
3
1
1
1
1
2
2
2
3
3
3
3
1
1
1
1
1
1
1
2
2
2
2
3
2
2
2
1
1
1
1
1
3
3
1
1
1
2
2
1
2
2
1
1
2
1
1
1
2
1
1
1
3
3
3
1
1
1
3
1
1
1
1
1
1
1
1
3
1
1
1
1
1
1
1
1
1
1
1
1
3
3
1
1
1
1
1
1
3
3
1
1
1
1
1
1
1
2
3
1
1
