# vtk DataFile Version 1.0
dislocation microstructure
ASCII
DATASET POLYDATA
POINTS 210 float
-1.407136E+02		-2.213016E+02		3.620151E+02
-4.069171E+02		1.959506E+01		3.873221E+02
-2.678171E+02		5.735064E+02		-3.056893E+02
-3.585793E+02		4.159045E+02		-5.732522E+01
2.435975E+02		5.088909E+02		-7.524885E+02
-3.645297E+01		4.790810E+02		-4.426281E+02
1.137360E+01		4.804267E+01		-5.941627E+01
2.977420E+02		-2.208350E+02		-7.690702E+01
-3.705953E+02		-3.364613E+02		7.070566E+02
-2.633774E+02		-5.962946E+01		3.230069E+02
-5.059046E+01		-1.177741E+02		1.683646E+02
-3.709113E+00		-3.770962E+02		3.808053E+02
-5.645235E+02		3.793574E+02		1.851661E+02
-3.703694E+02		9.044315E+01		2.799262E+02
-5.304416E+02		4.354699E+02		9.497178E+01
-5.136564E+02		1.737037E+02		3.399526E+02
-4.002894E+02		6.227393E+02		-2.224499E+02
-1.296146E+02		4.379697E+02		-3.083551E+02
3.132033E+01		-1.863970E+02		1.550767E+02
-2.594066E+02		2.052232E+02		5.418340E+01
5.559540E+02		2.224913E+01		-5.782031E+02
6.021915E+02		-3.324134E+02		-2.697781E+02
-9.943729E+01		-2.899623E+02		3.893996E+02
3.188077E+01		-5.505567E+02		5.186760E+02
-2.457631E+02		2.346175E+02		1.114560E+01
-1.949524E+01		-1.452330E+02		1.647282E+02
-2.084547E+02		-5.903237E+01		2.674871E+02
7.724556E+01		-1.624794E+02		8.523380E+01
-1.528213E+02		-1.332828E+02		2.861041E+02
-1.360497E+02		-1.859628E+02		3.220125E+02
-4.194810E+02		1.403821E+01		4.054428E+02
-4.106821E+02		3.207426E+01		3.786079E+02
-3.876087E+02		5.570145E+02		-1.694058E+02
-3.478534E+02		5.958159E+02		-2.479626E+02
-8.932050E+01		2.736476E+02		-1.843271E+02
-3.942665E+02		4.911809E+02		-9.691437E+01
-3.820427E+02		4.507789E+02		-6.873624E+01
2.544370E+02		2.177001E+02		-4.721371E+02
3.660727E+02		2.481022E+02		-6.141749E+02
3.809220E+02		4.102388E+02		-7.911609E+02
9.427078E+01		2.569040E+02		-3.511747E+02
-4.365143E+01		3.454939E+02		-3.018425E+02
2.532092E+02		5.699172E+01		-3.102010E+02
2.686076E+01		1.753033E+02		-2.021641E+02
-4.457626E+02		7.926014E+02		-3.468389E+02
3.827804E+02		-9.136054E+01		-2.914198E+02
4.360374E+02		-2.368853E+02		-1.991521E+02
-4.527985E+02		-1.034538E+02		5.562522E+02
-4.623617E+02		-1.948145E+02		6.571763E+02
-4.430801E+02		-2.690864E+02		7.121665E+02
-4.090666E+02		-3.118691E+02		7.209357E+02
-4.336350E+02		-2.743755E+01		4.610726E+02
4.153483E+02		-1.525287E+02		-2.628196E+02
4.003800E+02		-1.216750E+02		-2.787050E+02
9.838488E+01		-2.898047E+02		1.914199E+02
7.278404E+01		-2.188560E+02		1.460720E+02
7.165885E+02		-2.362684E+02		-4.803201E+02
9.924351E+01		-3.752080E+02		2.759645E+02
9.020786E+01		-4.284245E+02		3.382166E+02
-5.318427E+02		3.596045E+02		1.722382E+02
-3.111709E+02		1.985362E+02		1.126347E+02
-3.122478E+02		1.212679E+02		1.909799E+02
-3.369950E+02		9.528998E+01		2.417050E+02
-4.202892E+02		3.812519E+02		3.903729E+01
-4.847774E+02		4.248572E+02		5.992017E+01
-4.625927E+02		2.186723E+02		2.439204E+02
-4.819746E+02		1.854453E+02		2.965294E+02
7.136193E+02		-1.866372E+02		-5.269821E+02
-2.925460E+02		7.424119E+02		-4.498660E+02
-4.705321E+02		7.872030E+02		-3.166709E+02
-1.022201E+02		5.899357E+02		-4.877156E+02
3.824384E+02		-2.869355E+02		-9.550295E+01
2.139589E+02		8.800640E+01		-3.019653E+02
-2.935874E+02		5.935840E+02		-2.999966E+02
1.017677E+02		-3.546932E+02		2.529255E+02
4.306109E+02		-2.647503E+02		-1.658605E+02
-1.274933E+02		1.484856E+02		-2.099228E+01
-1.942146E+02		1.971517E+02		-2.937095E+00
-2.328682E+02		2.104922E+02		2.237600E+01
7.161316E+02		-2.116947E+02		-5.044369E+02
6.901500E+02		-9.955007E+01		-5.905999E+02
6.326038E+02		-1.777023E+01		-6.148335E+02
6.984740E+02		-3.059235E+02		-3.925505E+02
6.579884E+02		-3.364731E+02		-3.215153E+02
-1.160154E+02		4.100870E+02		-2.940716E+02
-2.501821E+01		-3.406628E+02		3.656810E+02
-6.153565E+01		-3.091527E+02		3.706883E+02
8.532318E+01		-5.105665E+02		4.252433E+02
6.334235E+01		-5.413476E+02		4.780052E+02
-4.699860E+02		1.999239E+02		2.700621E+02
-2.959030E+01		2.195680E+02		-1.899777E+02
-1.652569E+02		3.252123E+02		-1.599554E+02
-3.029716E+02		3.322870E+02		-2.931542E+01
6.598158E+01		-1.199905E+02		5.400891E+01
1.089370E+02		1.476702E+02		-2.566073E+02
-1.840188E+02		-8.536934E+01		2.693881E+02
-4.634699E+02		2.602431E+02		2.032268E+02
-4.763221E+02		2.951077E+02		1.812144E+02
-3.388787E+02		2.696682E+02		6.921050E+01
-3.677077E+02		3.189182E+02		4.878942E+01
-3.714526E+02		5.806511E+02		-2.091984E+02
-3.954436E+02		5.268290E+02		-1.313854E+02
1.878902E+02		2.244350E+02		-4.123251E+02
3.088336E+02		2.237663E+02		-5.325999E+02
1.704380E+02		1.167117E+02		-2.871496E+02
3.213378E+02		-9.941467E+00		-3.113963E+02
-4.601040E+02		-1.449330E+02		6.050370E+02
-4.436353E+02		-6.529481E+01		5.089301E+02
-4.622592E+02		-1.682713E+02		6.305306E+02
-4.581774E+02		-2.271363E+02		6.853137E+02
-4.275423E+02		-6.018661E+00		4.335610E+02
-4.387412E+02		-4.655479E+01		4.852959E+02
8.447669E+01		-2.449678E+02		1.604911E+02
1.028816E+02		-3.327513E+02		2.298697E+02
-3.053121E+02		1.591900E+02		1.461221E+02
-3.231871E+02		2.347954E+02		8.839170E+01
-2.265537E+02		3.499374E+02		-1.233837E+02
-1.847707E+02		6.668953E+02		-4.821247E+02
-7.938287E+01		1.054095E+02		-2.602658E+01
4.330974E+01		-8.159818E+01		3.828844E+01
-5.307625E+01		8.027064E+01		-2.719439E+01
1.188405E+02		2.465697E+02		-3.654102E+02
-1.581306E+02		1.735306E+02		-1.540003E+01
-1.009875E+02		1.249850E+02		-2.399745E+01
7.090842E+02		-1.605150E+02		-5.485692E+02
7.145096E+02		-2.603229E+02		-4.541867E+02
-6.495400E+00		1.988205E+02		-1.923251E+02
8.987523E+01		-4.697044E+02		3.798292E+02
-3.218944E+02		6.003662E+02		-2.784718E+02
4.390066E+00		6.841336E+01		-7.280343E+01
-4.568001E+02		-1.235620E+02		5.803622E+02
-4.483559E+02		-8.414853E+01		5.325044E+02
6.502626E+01		1.629947E+02		-2.280209E+02
5.902543E+02		1.121688E+01		-6.014712E+02
6.686076E+02		-5.944190E+01		-6.091658E+02
-3.957362E+02		7.116567E+01		3.245706E+02
-2.098477E+02		6.866327E+02		-4.767849E+02
-2.394604E+02		-6.431176E+01		3.037722E+02
6.298947E+02		-3.393307E+02		-2.905640E+02
6.814424E+02		-3.246328E+02		-3.568096E+02
4.002731E+02		2.950625E+02		-6.953356E+02
2.885721E+02		5.095143E+02		-7.980864E+02
2.430262E+01		2.971818E+02		-3.214845E+02
4.355971E+01		-2.113195E+02		1.677598E+02
-3.726289E+02		7.805394E+02		-4.079105E+02
-4.474436E+02		6.466446E+02		-1.992010E+02
-8.077905E+01		5.656724E+02		-4.848933E+02
-5.047907E+02		3.353619E+02		1.694288E+02
-3.871651E+02		3.452415E+02		4.192356E+01
-3.540636E+02		2.974947E+02		5.656888E+01
-2.698305E+02		2.112882E+01		2.487017E+02
7.558092E+01		-1.528585E+02		7.727758E+01
-6.124379E+01		5.407626E+02		-4.795189E+02
-8.763028E+01		3.807487E+02		-2.931184E+02
7.088758E+02		-2.840712E+02		-4.248046E+02
3.483105E+02		-2.740971E+02		-7.421333E+01
7.018309E+02		-1.319283E+02		-5.699026E+02
1.434066E+02		2.366247E+02		-3.800313E+02
-2.594877E+02		7.218486E+02		-4.623608E+02
2.884598E+02		2.466518E+01		-3.131250E+02
3.532035E+02		-4.870568E+01		-3.044978E+02
-1.420842E+02		6.297545E+02		-4.876703E+02
3.376050E+02		2.326563E+02		-5.702613E+02
-4.955235E+02		7.268220E+02		-2.312985E+02
-1.950327E+01		-1.451115E+02		1.646148E+02
3.442856E+02		4.630282E+02		-8.073138E+02
4.025169E+02		3.492869E+02		-7.518038E+02
-2.346449E+02		7.048590E+02		-4.702141E+02
2.231643E+02		2.190902E+02		-4.422545E+02
4.130647E+02		-2.839375E+02		-1.291271E+02
9.451461E+01		-4.007318E+02		3.062172E+02
-2.826864E+02		2.629479E+02		1.973843E+01
-4.189465E+02		7.919611E+02		-3.730146E+02
-3.178376E+02		5.502983E+01		2.628078E+02
2.822063E+02		2.193224E+02		-5.015286E+02
-3.308445E+02		7.629658E+02		-4.321212E+02
3.643709E+02		4.372349E+02		-8.016058E+02
4.301277E+02		-1.944064E+02		-2.357213E+02
8.957955E+01		-4.469480E+02		3.573685E+02
-1.419333E+02		-1.603604E+02		3.022937E+02
-1.140268E+01		3.218963E+02		-3.104936E+02
-6.483393E+01		3.617385E+02		-2.969046E+02
-4.518148E+02		4.062679E+02		4.554689E+01
4.576781E+01		-1.750184E+02		1.292506E+02
-1.257476E+02		3.011122E+02		-1.753647E+02
3.861321E+02		2.675646E+02		-6.536966E+02
5.810017E+01		2.761685E+02		-3.342687E+02
-2.686341E+02		3.541569E+02		-8.552281E+01
-2.346587E+02		-1.545979E+01		2.501185E+02
-4.937203E+02		7.641807E+02		-2.704605E+02
-4.791900E+02		6.863776E+02		-2.071876E+02
3.147509E+02		-2.478063E+02		-6.694457E+01
-5.880618E+01		2.470781E+02		-1.882719E+02
-1.430520E+00		-1.723082E+02		1.737387E+02
-4.432762E+01		5.141120E+02		-4.697843E+02
-3.576897E+02		7.110993E+01		2.865798E+02
1.400494E+02		1.333827E+02		-2.734321E+02
3.172610E+02		4.895526E+02		-8.068136E+02
2.583395E+02		5.203832E+02		-7.787226E+02
4.043746E+02		3.210537E+02		-7.254284E+02
8.729013E+01		-2.017838E+02		1.144937E+02
-3.020584E+02		2.983994E+02		3.659045E+00
3.947284E+02		3.789783E+02		-7.737067E+02
-1.953626E+02		3.394020E+02		-1.440394E+02
7.659622E+01		-5.282665E+02		4.516703E+02
8.878656E+01		-4.907596E+02		4.019731E+02
-3.230360E+02		1.065466E+02		2.164894E+02
-2.882652E+02		3.462974E+02		-5.803215E+01
-4.081633E+02		5.572700E+01		3.524363E+02
-2.937419E+02		3.829854E+01		2.554434E+02
LINES 198 594
2		0		29
2		1		31
2		2		73
2		3		36
2		4		198
2		5		194
2		6		129
2		7		191
2		8		50
2		9		137
2		10		164
2		11		85
2		12		59
2		13		62
2		14		64
2		15		66
2		16		145
2		17		84
2		18		183
2		19		78
2		20		133
2		21		138
2		22		86
2		23		88
2		24		171
2		25		164
2		26		137
2		26		95
2		26		188
2		27		151
2		27		183
2		27		200
2		28		95
2		28		179
2		29		179
2		30		110
2		30		31
2		31		208
2		32		100
2		32		101
2		33		100
2		33		128
2		34		184
2		34		192
2		35		101
2		35		36
2		37		168
2		37		174
2		38		162
2		38		185
2		39		202
2		39		176
2		40		186
2		40		121
2		41		181
2		41		180
2		42		72
2		42		159
2		43		132
2		43		126
2		44		172
2		44		69
2		45		160
2		45		53
2		46		75
2		46		177
2		47		130
2		47		131
2		48		108
2		48		109
2		49		109
2		49		50
2		51		110
2		51		111
2		52		177
2		52		53
2		54		112
2		54		113
2		55		112
2		55		143
2		55		200
2		56		125
2		56		79
2		57		170
2		57		74
2		58		170
2		58		178
2		59		147
2		60		114
2		60		115
2		61		114
2		61		206
2		62		206
2		63		148
2		63		182
2		64		182
2		65		96
2		65		89
2		66		89
2		67		124
2		67		79
2		68		175
2		68		158
2		69		189
2		70		161
2		70		146
2		71		155
2		71		169
2		72		104
2		73		128
2		74		113
2		75		169
2		76		122
2		76		123
2		77		122
2		77		78
2		80		134
2		80		156
2		81		134
2		81		133
2		82		139
2		82		154
2		83		139
2		83		138
2		84		153
2		85		86
2		87		204
2		87		205
2		88		204
2		90		192
2		90		126
2		91		184
2		91		203
2		92		201
2		92		207
2		93		151
2		93		119
2		94		132
2		94		196
2		96		97
2		97		147
2		98		115
2		98		149
2		99		149
2		99		148
2		102		157
2		102		168
2		103		162
2		103		174
2		104		196
2		105		160
2		105		159
2		106		108
2		106		130
2		107		111
2		107		131
2		116		203
2		116		187
2		117		161
2		117		136
2		118		123
2		118		120
2		121		157
2		124		156
2		125		154
2		127		205
2		127		178
2		135		208
2		135		195
2		136		167
2		140		185
2		140		199
2		141		197
2		141		198
2		142		180
2		142		186
2		143		193
2		144		175
2		144		172
2		145		190
2		146		152
2		150		188
2		150		209
2		152		194
2		153		181
2		155		191
2		158		167
2		163		189
2		163		190
2		164		193
2		165		197
2		165		176
2		166		199
2		166		202
2		171		201
2		173		209
2		173		195
2		187		207
POINT_DATA 210
scalars NodeType integer
LOOKUP_TABLE default
7
7
7
7
7
7
7
7
7
7
7
7
7
7
7
7
7
7
7
7
7
7
7
7
7
7
0
0
0
0
0
0
0
0
0
0
0
0
0
0
0
0
0
0
0
0
0
0
0
0
0
0
0
0
0
0
0
0
0
0
0
0
0
0
0
0
0
0
0
0
0
0
0
0
0
0
0
0
0
0
0
0
0
0
0
0
0
0
0
0
0
0
0
0
0
0
0
0
0
0
0
0
0
0
0
0
0
0
0
0
0
0
0
0
0
0
0
0
0
9
9
0
0
0
0
0
0
0
0
9
0
0
0
0
0
0
0
0
0
0
0
0
0
0
0
0
0
0
0
0
0
0
0
0
0
0
0
0
0
0
0
0
0
0
0
0
0
0
0
0
0
0
0
0
0
0
0
0
0
0
0
0
0
0
0
0
0
0
0
0
0
0
0
0
0
0
0
0
0
0
0
0
0
0
0
0
0
0
0
0
CELL_DATA 198
SCALARS SlipSystem integer
LOOKUP_TABLE default
3
3
3
3
1
1
1
1
2
2
2
2
2
2
2
2
1
1
3
3
2
2
2
2
1
1
2
3
1
13
3
1
3
3
3
2
2
1
3
3
3
3
1
1
3
3
1
1
1
1
1
1
1
1
1
1
1
1
1
1
1
1
1
1
1
1
2
2
2
2
2
2
2
2
1
1
2
2
2
3
1
2
2
2
2
2
2
2
2
2
2
2
2
2
2
2
2
2
2
2
2
1
1
1
1
1
1
1
1
3
2
1
3
3
3
3
2
2
2
2
2
2
2
2
1
2
2
2
2
1
1
1
1
1
1
13
13
1
1
2
2
2
2
2
2
1
1
1
1
1
1
1
2
2
2
2
1
1
1
1
3
3
1
2
2
2
2
1
1
1
1
1
1
1
1
1
3
1
1
1
1
1
1
1
1
1
1
1
1
3
1
1
1
1
1
1
1
1
