# vtk DataFile Version 1.0
dislocation microstructure
ASCII
DATASET POLYDATA
POINTS 269 float
-1.407136E+02		-2.213016E+02		3.620151E+02
-4.069171E+02		1.959506E+01		3.873221E+02
-2.678171E+02		5.735064E+02		-3.056893E+02
-3.585793E+02		4.159045E+02		-5.732522E+01
2.435975E+02		5.088909E+02		-7.524885E+02
-3.645297E+01		4.790810E+02		-4.426281E+02
1.137360E+01		4.804267E+01		-5.941627E+01
2.977420E+02		-2.208350E+02		-7.690702E+01
-3.705953E+02		-3.364613E+02		7.070566E+02
-2.633774E+02		-5.962946E+01		3.230069E+02
-5.059046E+01		-1.177741E+02		1.683646E+02
-3.709113E+00		-3.770962E+02		3.808053E+02
-5.645235E+02		3.793574E+02		1.851661E+02
-3.703694E+02		9.044315E+01		2.799262E+02
-5.304416E+02		4.354699E+02		9.497178E+01
-5.136564E+02		1.737037E+02		3.399526E+02
-4.002894E+02		6.227393E+02		-2.224499E+02
-1.296146E+02		4.379697E+02		-3.083551E+02
3.132033E+01		-1.863970E+02		1.550767E+02
-2.594066E+02		2.052232E+02		5.418340E+01
5.559540E+02		2.224913E+01		-5.782031E+02
6.021915E+02		-3.324134E+02		-2.697781E+02
-9.943729E+01		-2.899623E+02		3.893996E+02
3.188077E+01		-5.505567E+02		5.186760E+02
-2.457631E+02		2.346175E+02		1.114560E+01
-1.949524E+01		-1.452330E+02		1.647282E+02
-8.011151E+01		-1.903593E+02		2.704708E+02
6.539615E+02		-1.811140E+00		-6.521504E+02
-4.643471E+02		-1.447671E+01		4.788238E+02
-1.015024E+02		-2.191357E+02		3.206380E+02
-1.476737E+02		1.695930E+02		-2.191923E+01
-4.386090E+02		-1.244312E+01		4.510521E+02
1.297905E+02		-3.902195E+02		2.604291E+02
-3.848866E+02		6.454593E+02		-2.605728E+02
-4.141468E+02		2.796579E+02		1.344888E+02
7.136609E+02		-3.628820E+02		-3.507789E+02
-3.863112E+02		2.513595E+02		1.349518E+02
7.715490E+02		-4.189235E+01		-7.296566E+02
-5.589938E+02		4.687886E+02		9.020513E+01
-6.164094E+02		1.233678E+02		4.930416E+02
-1.160417E+02		-1.735013E+02		2.895430E+02
6.577819E+02		-6.339670E+01		-5.943852E+02
-3.058183E+00		-1.460505E+02		1.491087E+02
7.173901E+02		-2.395034E+02		-4.778867E+02
2.595686E+02		-1.047620E+02		-1.548066E+02
6.695403E+02		-9.120014E+01		-5.783402E+02
7.277003E+02		6.839980E+01		-7.961001E+02
-5.832694E+02		-1.533618E+01		5.986056E+02
-5.919079E+02		-1.506788E+02		7.425867E+02
-4.862969E+02		-3.007942E+02		7.870912E+02
-4.072948E+02		-3.371478E+02		7.444426E+02
-5.316803E+02		2.177755E+02		3.139048E+02
7.053532E+02		-1.954044E+02		-5.099488E+02
6.864595E+02		-1.373544E+02		-5.491051E+02
-2.815902E+02		1.027784E+03		-7.461936E+02
-5.277926E+02		-2.647184E+02		7.925110E+02
8.564178E+02		-3.244087E+02		-5.320091E+02
2.433681E+02		-4.727387E+02		2.293705E+02
2.298550E+02		-5.199349E+02		2.900799E+02
-5.307040E+02		3.683613E+02		1.623427E+02
-4.033201E+02		5.910460E+02		-1.877259E+02
5.896853E+00		3.911953E+02		-3.970922E+02
-4.310078E+01		4.585353E+02		-4.154345E+02
-5.898327E+02		5.057209E+02		8.411178E+01
-5.082038E+02		4.149181E+02		9.328564E+01
1.961245E+02		3.981242E+02		-5.942487E+02
-5.296657E+02		4.351403E+02		9.452537E+01
8.645081E+02		-2.495063E+02		-6.150018E+02
-2.514047E+02		1.005039E+03		-7.536339E+02
-4.793832E+02		3.742702E+02		1.051130E+02
2.205875E+02		4.534780E+02		-6.740655E+02
3.883938E+02		-5.219421E+02		1.335483E+02
-1.745758E+02		-1.445664E+02		3.191421E+02
3.029324E+02		-1.716798E+02		-1.312526E+02
-1.315834E+02		5.077885E+02		-3.762051E+02
7.186161E+02		-5.124169E+02		-2.061993E+02
-9.041837E+01		1.994171E+02		-1.089988E+02
-2.144694E+02		2.595984E+02		-4.512904E+01
7.279214E+02		-3.164429E+02		-4.114785E+02
8.637613E+02		-2.887741E+02		-5.749872E+02
8.042434E+02		-8.452119E+01		-7.197222E+02
6.873831E+02		1.104320E+01		-6.984263E+02
7.889581E+02		-4.063722E+02		-3.825858E+02
-4.257188E+01		-2.021586E+02		2.447305E+02
-1.595218E+02		5.420819E+02		-3.825601E+02
-1.924579E+01		-3.409217E+02		3.601674E+02
-5.969623E+01		-3.069159E+02		3.666121E+02
1.501681E+02		-5.824670E+02		4.322988E+02
7.657935E+01		-5.762182E+02		4.996389E+02
-5.135895E+02		2.676765E+02		2.459129E+02
2.860932E+02		-4.880967E+02		2.020036E+02
-2.174727E+02		5.891497E+02		-3.716769E+02
8.506076E+02		-1.793056E+02		-6.713019E+02
4.336633E+01		-8.159578E+01		3.822944E+01
-2.378845E+01		4.229339E+02		-3.991454E+02
2.017581E+02		4.232425E+02		-6.250006E+02
-4.884851E+02		3.023992E+02		1.860859E+02
-1.253466E+02		1.454799E+02		-2.013326E+01
-2.468666E+01		-2.342621E+02		2.589488E+02
-4.664779E+02		3.504062E+02		1.160717E+02
-5.267634E+02		2.418178E+02		2.849456E+02
7.261101E+02		-4.912295E+02		-2.348807E+02
-1.153629E+02		4.458648E+02		-3.305019E+02
-3.511175E+02		9.753845E+01		2.535790E+02
6.337774E+02		-6.722753E+00		-6.270546E+02
1.262672E+02		9.451534E+00		-1.357187E+02
-5.991798E+02		-6.928479E+01		6.684646E+02
-5.468742E+02		1.573301E+01		5.311412E+02
-5.995325E+02		-1.056890E+02		7.052215E+02
-5.623005E+02		-2.195256E+02		7.818261E+02
2.160050E+02		-4.507004E+02		2.346954E+02
-5.418422E+02		1.529049E+01		5.265518E+02
1.629262E+02		-4.127175E+02		2.497912E+02
2.065205E+02		4.457382E+02		-6.522587E+02
-6.347830E+02		5.587406E+02		7.604247E+01
-2.701893E+01		-1.613116E+02		1.883306E+02
-3.171793E+02		6.226960E+02		-3.055166E+02
-5.924532E+01		8.548431E+02		-7.955978E+02
-4.408205E+01		1.142258E+02		-7.014371E+01
-4.199906E+02		5.379345E+02		-1.179439E+02
-4.338036E+01		8.159517E+01		-3.821481E+01
2.318611E+02		-7.457939E+01		-1.572817E+02
-1.488420E+02		2.473573E+02		-9.851527E+01
-5.928465E+01		1.541967E+02		-9.491203E+01
8.579128E+02		-2.055174E+02		-6.523954E+02
8.420575E+02		-3.563943E+02		-4.856631E+02
3.402889E+02		-5.038938E+02		1.636049E+02
2.008241E+02		-5.583916E+02		3.575675E+02
-3.397888E+02		6.571246E+02		-3.173357E+02
3.369362E+00		6.896577E+01		-7.233513E+01
-5.935130E+02		-3.977672E+01		6.332897E+02
-5.680931E+02		4.170093E+00		5.639230E+02
3.066361E+02		-2.092198E+02		-9.741634E+01
6.520249E+02		-3.614147E+02		-2.906102E+02
7.345038E+02		-2.684566E+00		-7.318192E+02
4.281058E+02		-5.378247E+02		1.097189E+02
-1.047556E+02		8.934810E+02		-7.887254E+02
-2.456140E+02		-9.163550E+01		3.372495E+02
7.148134E+02		-4.163289E+02		-2.984845E+02
7.461092E+02		-4.189472E+02		-3.271620E+02
-5.805851E+02		5.984143E+01		5.207437E+02
3.867546E+01		7.778212E+02		-8.164967E+02
2.866204E+01		-3.039376E+02		2.752755E+02
-6.569156E+00		-2.606078E+02		2.671769E+02
1.636835E+02		3.491406E+02		-5.128241E+02
-5.763284E+02		4.894799E+02		8.684844E+01
-8.491018E+01		9.595842E+01		-1.104824E+01
-4.944288E+02		3.454657E+02		1.489631E+02
5.767761E+01		-1.183967E+02		6.071911E+01
-4.450672E+02		-3.246723E+02		7.697395E+02
-1.047195E+02		1.208795E+02		-1.616001E+01
-1.117153E+02		4.637611E+02		-3.520458E+02
5.801570E+02		1.491467E+01		-5.950717E+02
-3.383717E+02		1.814210E+02		1.569507E+02
8.198159E+02		-3.843203E+02		-4.354957E+02
8.531357E+01		3.450978E+02		-4.304114E+02
8.411081E+02		-1.529259E+02		-6.881822E+02
5.905522E+02		-5.748074E+02		-1.574479E+01
-1.965279E+02		9.647927E+02		-7.682648E+02
5.183458E+02		-5.664500E+02		4.810418E+01
6.468095E+02		-4.136725E+01		-6.054422E+02
1.830938E+01		7.907752E+02		-8.090846E+02
6.249266E+02		-9.218673E+00		-6.157079E+02
-7.318741E+02		6.634098E+02		6.846424E+01
6.359373E+02		-5.699057E+02		-6.603160E+01
-2.093853E+02		-1.227946E+02		3.321798E+02
-2.383858E+02		2.471853E+02		-8.799534E+00
-1.506645E+02		9.302450E+02		-7.795805E+02
-1.433343E+02		-1.606916E+02		3.040259E+02
5.660168E+02		-5.738266E+02		7.809735E+00
2.406266E+02		-4.892696E+02		2.486430E+02
-3.981263E+02		4.578389E+02		-5.971259E+01
8.052062E+02		-3.965468E+02		-4.086594E+02
-6.996084E+02		6.299668E+02		6.964159E+01
6.752301E+02		-5.551467E+02		-1.200834E+02
-3.050761E+02		1.046754E+03		-7.416776E+02
1.663831E+02		-1.713374E+01		-1.492494E+02
7.260414E+02		-2.854069E+02		-4.406346E+02
2.180639E+02		-5.396239E+02		3.215599E+02
-8.170606E+01		-1.939441E+02		2.756501E+02
-4.704135E+02		3.235538E+02		1.468597E+02
-3.492814E+02		6.315172E+02		-2.822358E+02
-4.168174E+02		5.044336E+02		-8.761621E+01
4.709472E+01		-1.771507E+02		1.300559E+02
-3.299019E+02		1.496488E+02		1.802532E+02
-2.815208E+02		6.088706E+02		-3.273499E+02
-6.286657E+02		1.796166E+02		4.490491E+02
-3.676092E+02		6.564926E+02		-2.888834E+02
-6.728347E+01		7.370046E+01		-6.416989E+00
-7.413076E+02		6.729061E+02		6.840151E+01
-6.609347E+02		5.881529E+02		7.278179E+01
2.919676E+02		-1.484729E+02		-1.434946E+02
7.331769E+02		8.331975E+01		-8.164967E+02
-3.492563E+01		-1.818882E+02		2.168138E+02
1.285934E+02		3.388205E+02		-4.674139E+02
-3.341492E+02		1.179484E+02		2.162008E+02
6.044253E+01		1.731846E+01		-7.776099E+01
-5.051239E+02		-2.859109E+00		5.079830E+02
2.541099E+02		4.789894E+02		-7.330994E+02
7.066267E+02		-5.300478E+02		-1.765789E+02
-4.161904E+02		5.630881E+02		-1.468976E+02
-4.566123E+02		3.156773E+02		1.409350E+02
-8.197648E+01		8.741683E+02		-7.921918E+02
-2.648941E+02		6.110904E+02		-3.461963E+02
1.167666E+02		-5.843796E+02		4.676131E+02
1.781716E+02		-5.732556E+02		3.950840E+02
-1.943105E+01		-1.453197E+02		1.647508E+02
1.007550E+02		-3.691610E+02		2.684060E+02
-6.005657E+02		9.113230E+01		5.094334E+02
2.388464E+02		4.602623E+02		-6.991088E+02
-1.193191E+02		4.856364E+02		-3.663173E+02
-3.893701E+02		6.379906E+02		-2.486206E+02
-6.115850E+02		5.317529E+02		7.983210E+01
-3.377922E+02		1.076421E+03		-7.386293E+02
5.597941E+01		-1.610970E+02		1.051176E+02
7.072643E+02		2.055891E+01		-7.278232E+02
-3.589297E+02		2.172941E+02		1.416355E+02
-4.017539E+01		-4.147084E+01		8.164623E+01
-1.178941E+02		2.264141E+02		-1.085201E+02
7.239666E+02		-3.479724E+02		-3.759941E+02
-3.064582E+02		6.419951E+02		-3.355369E+02
6.268438E+02		-3.498925E+02		-2.769514E+02
-1.788285E+01		-6.666024E+01		8.454309E+01
-2.432520E+02		2.352555E+02		7.996554E+00
-3.806218E+02		4.335843E+02		-5.296248E+01
1.854994E+02		-4.284350E+02		2.429356E+02
-1.848706E+01		8.196103E+02		-8.011232E+02
-7.344680E-01		-1.079621E+02		1.086965E+02
-4.099310E+02		4.822285E+02		-7.229748E+01
6.569575E+02		-5.636882E+02		-9.326935E+01
7.216665E+02		4.724885E+01		-7.689153E+02
4.712497E+02		-5.533990E+02		8.214927E+01
8.316024E+02		-3.711178E+02		-4.604846E+02
-4.164043E+02		6.601869E-01		4.157441E+02
6.679921E+01		-3.414035E+02		2.746043E+02
7.685781E+02		-4.145098E+02		-3.540683E+02
8.853415E+01		2.556308E+01		-1.140972E+02
-5.974867E+02		2.315787E+02		3.659080E+02
5.938708E+01		-1.424199E+02		8.303282E+01
-1.866794E+02		5.670167E+02		-3.803373E+02
6.135216E+02		-5.736190E+02		-3.990263E+01
3.605313E+02		-5.111199E+02		1.505886E+02
-6.274236E+02		1.575711E+02		4.698524E+02
6.918699E+02		-5.443407E+02		-1.475292E+02
4.246043E+01		3.645161E+02		-4.069766E+02
1.859405E+02		3.729224E+02		-5.588629E+02
-5.299672E+02		2.031448E+02		3.268224E+02
-4.928709E+02		3.950083E+02		9.786260E+01
-3.792716E+02		6.337157E+02		-2.544441E+02
-1.847859E+02		2.598496E+02		-7.506369E+01
-2.251558E+02		9.857901E+02		-7.606343E+02
6.899527E+02		-3.732446E+02		-3.167082E+02
3.120520E+02		-1.946154E+02		-1.174367E+02
6.169008E+02		-2.866345E+00		-6.140344E+02
6.959921E+02		-1.655884E+02		-5.304036E+02
-5.460233E+02		2.162093E+02		3.298139E+02
2.011609E+02		-4.555169E+01		-1.556092E+02
-6.177146E+02		2.220147E+02		3.956999E+02
7.284780E+02		-4.631221E+02		-2.653559E+02
-5.804842E+02		-1.840280E+02		7.645122E+02
-5.715032E+02		2.282482E+02		3.432550E+02
-1.944049E+02		2.095121E+02		-1.510722E+01
-1.718098E+02		1.921305E+02		-2.032071E+01
8.250961E+02		-1.189638E+02		-7.061323E+02
3.085798E+02		-4.941343E+02		1.855545E+02
5.425940E+02		-5.708058E+02		2.821179E+01
-6.291395E+02		2.013682E+02		4.277713E+02
-3.923650E+02		6.049191E+02		-2.125541E+02
-5.030073E+02		2.835080E+02		2.194993E+02
LINES 261 783
2		0		29
2		1		233
2		2		185
2		3		224
2		4		198
2		5		62
2		6		129
2		7		132
2		8		50
2		9		137
2		10		206
2		11		85
2		12		59
2		13		103
2		14		66
2		15		246
2		16		211
2		17		102
2		18		183
2		19		223
2		20		152
2		21		221
2		22		86
2		23		88
2		24		223
2		25		206
2		26		179
2		26		40
2		26		83
2		27		81
2		27		104
2		28		197
2		28		31
2		29		179
2		30		262
2		30		97
2		31		233
2		32		207
2		32		112
2		33		187
2		33		211
2		34		201
2		34		36
2		35		219
2		35		251
2		36		216
2		37		134
2		37		80
2		38		66
2		38		145
2		39		242
2		39		208
2		40		168
2		41		160
2		41		45
2		42		227
2		42		206
2		43		177
2		43		52
2		44		121
2		44		191
2		45		53
2		46		230
2		46		192
2		47		130
2		47		131
2		48		108
2		48		259
2		49		149
2		49		55
2		50		149
2		51		246
2		51		100
2		52		254
2		53		254
2		54		175
2		54		68
2		55		109
2		56		125
2		56		79
2		57		170
2		57		110
2		57		90
2		58		170
2		58		178
2		59		147
2		60		200
2		60		267
2		61		244
2		61		94
2		62		94
2		63		212
2		63		145
2		64		247
2		64		66
2		65		245
2		65		95
2		67		124
2		67		79
2		68		250
2		69		99
2		69		247
2		70		209
2		70		113
2		71		135
2		71		241
2		72		165
2		72		168
2		73		191
2		73		252
2		74		210
2		74		84
2		75		199
2		75		101
2		76		123
2		76		218
2		77		166
2		77		249
2		78		219
2		78		177
2		80		263
2		81		215
2		82		235
2		82		172
2		83		193
2		83		98
2		84		239
2		85		86
2		87		204
2		87		205
2		88		204
2		89		100
2		89		268
2		90		264
2		91		203
2		91		239
2		92		156
2		92		124
2		93		148
2		95		113
2		96		201
2		96		268
2		97		150
2		98		143
2		99		201
2		101		258
2		102		151
2		103		195
2		104		253
2		105		176
2		105		236
2		106		108
2		106		130
2		107		111
2		107		131
2		109		259
2		110		225
2		111		197
2		111		140
2		112		225
2		114		212
2		114		190
2		115		206
2		115		193
2		116		181
2		116		185
2		117		226
2		117		202
2		118		123
2		118		120
2		119		200
2		119		182
2		121		256
2		122		249
2		122		218
2		125		232
2		126		241
2		126		264
2		127		205
2		127		178
2		128		187
2		128		220
2		132		252
2		133		251
2		133		221
2		134		215
2		135		231
2		136		167
2		136		202
2		137		165
2		138		251
2		138		258
2		138		139
2		139		235
2		140		208
2		141		161
2		142		234
2		142		143
2		144		245
2		144		194
2		146		150
2		146		188
2		147		180
2		148		238
2		151		210
2		152		253
2		153		184
2		153		216
2		154		232
2		154		172
2		155		244
2		155		194
2		156		263
2		157		240
2		157		169
2		158		167
2		158		250
2		159		231
2		159		265
2		160		162
2		161		226
2		162		253
2		163		173
2		163		189
2		164		240
2		164		229
2		166		223
2		169		265
2		171		224
2		171		228
2		173		190
2		174		243
2		174		229
2		175		213
2		176		256
2		180		201
2		181		248
2		182		228
2		183		214
2		184		195
2		185		203
2		185		220
2		186		266
2		186		242
2		196		236
2		198		209
2		199		243
2		207		234
2		211		248
2		214		238
2		215		230
2		217		222
2		222		227
2		223		261
2		237		257
2		237		260
2		246		255
2		248		267
2		255		260
2		257		266
2		261		262
POINT_DATA 269
scalars NodeType integer
LOOKUP_TABLE default
7
7
7
7
7
7
7
7
7
7
7
7
7
7
7
7
7
7
7
7
7
7
7
7
7
7
0
0
0
0
0
0
0
0
0
0
0
0
0
0
0
0
0
0
0
0
0
0
0
0
0
0
0
0
0
0
0
0
0
0
0
0
0
0
0
0
0
0
0
0
0
0
0
0
0
0
0
0
0
0
0
0
0
0
0
0
0
0
0
0
0
0
0
9
0
0
0
0
0
0
0
0
0
0
0
0
0
0
0
0
0
0
0
0
0
0
0
0
0
0
9
0
0
0
0
0
0
0
0
9
0
0
0
0
0
0
0
0
0
0
0
8
0
0
0
0
0
0
0
0
0
0
0
0
0
0
0
0
0
0
0
0
0
0
0
0
0
0
0
0
0
0
0
0
0
0
0
0
0
0
0
0
0
0
0
0
0
0
9
8
0
0
8
0
0
0
9
0
0
0
0
0
0
0
0
0
0
0
0
0
0
0
0
8
0
0
0
9
0
0
0
0
0
0
0
0
0
0
0
0
0
0
0
0
0
0
0
0
0
0
0
0
0
0
0
0
0
0
0
0
0
0
0
0
0
0
0
0
0
0
0
0
0
0
0
0
0
0
0
CELL_DATA 261
SCALARS SlipSystem integer
LOOKUP_TABLE default
3
3
3
3
1
1
1
1
2
2
2
2
2
2
2
2
1
1
3
3
2
2
2
2
1
1
3
2
1
3
3
3
3
3
1
1
3
3
3
3
3
2
2
1
1
2
2
2
1
1
1
1
2
1
1
1
1
1
1
1
1
1
1
1
2
2
2
2
2
2
2
3
3
1
1
1
1
2
2
2
2
3
1
2
2
2
3
3
1
1
1
1
1
3
3
1
1
2
2
1
3
3
1
1
1
1
2
2
1
1
1
1
1
1
3
3
3
3
1
1
2
3
2
2
2
3
1
2
2
2
2
3
3
1
1
1
2
2
3
1
3
3
1
3
3
1
1
2
3
1
1
2
2
2
2
2
3
3
1
3
1
1
2
2
1
1
1
1
3
3
3
3
1
3
3
2
1
1
2
2
3
3
1
2
2
2
1
1
1
2
3
1
2
2
1
1
3
3
1
1
1
1
2
3
1
2
2
2
2
2
1
1
2
1
1
1
1
1
1
1
1
1
1
1
1
1
3
1
3
3
1
1
1
1
1
2
1
3
3
2
1
3
1
1
1
1
1
3
2
3
1
1
1
1
1
1
1
3
1
1
1
