# vtk DataFile Version 1.0
dislocation microstructure
ASCII
DATASET POLYDATA
POINTS 203 float
-1.407136E+02		-2.213016E+02		3.620151E+02
-4.069171E+02		1.959506E+01		3.873221E+02
-2.678171E+02		5.735064E+02		-3.056893E+02
-3.585793E+02		4.159045E+02		-5.732522E+01
2.435975E+02		5.088909E+02		-7.524885E+02
-3.645297E+01		4.790810E+02		-4.426281E+02
1.137360E+01		4.804267E+01		-5.941627E+01
2.977420E+02		-2.208350E+02		-7.690702E+01
-3.705953E+02		-3.364613E+02		7.070566E+02
-2.633774E+02		-5.962946E+01		3.230069E+02
-5.059046E+01		-1.177741E+02		1.683646E+02
-3.709113E+00		-3.770962E+02		3.808053E+02
-5.645235E+02		3.793574E+02		1.851661E+02
-3.703694E+02		9.044315E+01		2.799262E+02
-5.304416E+02		4.354699E+02		9.497178E+01
-5.136564E+02		1.737037E+02		3.399526E+02
-4.002894E+02		6.227393E+02		-2.224499E+02
-1.296146E+02		4.379697E+02		-3.083551E+02
3.132033E+01		-1.863970E+02		1.550767E+02
-2.594066E+02		2.052232E+02		5.418340E+01
5.559540E+02		2.224913E+01		-5.782031E+02
6.021915E+02		-3.324134E+02		-2.697781E+02
-9.943729E+01		-2.899623E+02		3.893996E+02
3.188077E+01		-5.505567E+02		5.186760E+02
-2.457631E+02		2.346175E+02		1.114560E+01
-1.949524E+01		-1.452330E+02		1.647282E+02
-2.193078E+02		-5.726707E+01		2.765748E+02
7.294057E+01		-1.745173E+02		1.015767E+02
-1.561873E+02		-1.339177E+02		2.901049E+02
-1.382667E+02		-1.846036E+02		3.228703E+02
-4.123285E+02		9.013311E+00		4.033152E+02
-4.052203E+02		3.361183E+01		3.716084E+02
-3.827492E+02		5.532220E+02		-1.704727E+02
-3.445407E+02		5.915271E+02		-2.469863E+02
-9.695024E+01		2.600104E+02		-1.630601E+02
-3.909086E+02		4.899410E+02		-9.903249E+01
-3.803622E+02		4.507963E+02		-7.043413E+01
2.423294E+02		2.416868E+02		-4.840161E+02
3.470803E+02		2.694763E+02		-6.165567E+02
3.670245E+02		4.100450E+02		-7.770694E+02
9.333895E+01		2.769672E+02		-3.703061E+02
-3.698679E+01		3.637550E+02		-3.267682E+02
2.452253E+02		4.371393E+01		-2.889393E+02
3.160391E+01		1.419154E+02		-1.735193E+02
-4.339357E+02		7.714734E+02		-3.375378E+02
3.669620E+02		-9.489169E+01		-2.720704E+02
4.163916E+02		-2.273327E+02		-1.890590E+02
-4.414783E+02		-1.108105E+02		5.522888E+02
-4.527273E+02		-1.992341E+02		6.519614E+02
-4.376165E+02		-2.687766E+02		7.063931E+02
-4.074464E+02		-3.107651E+02		7.182116E+02
-4.217736E+02		-3.540475E+01		4.571784E+02
3.968914E+02		-1.504705E+02		-2.464209E+02
3.831043E+02		-1.225101E+02		-2.605942E+02
8.875975E+01		-2.866754E+02		1.979156E+02
5.903759E+01		-2.046915E+02		1.456539E+02
7.060370E+02		-2.308336E+02		-4.752034E+02
8.785164E+01		-3.680604E+02		2.802088E+02
7.473226E+01		-4.195301E+02		3.447978E+02
-5.322196E+02		3.585800E+02		1.736395E+02
-3.222906E+02		2.016197E+02		1.206708E+02
-3.183347E+02		1.254540E+02		1.928806E+02
-3.388139E+02		9.780470E+01		2.410092E+02
-4.244854E+02		3.770603E+02		4.742510E+01
-4.841299E+02		4.213914E+02		6.273856E+01
-4.663116E+02		2.206151E+02		2.456966E+02
-4.833579E+02		1.873613E+02		2.959966E+02
7.025309E+02		-1.823356E+02		-5.201954E+02
-2.945881E+02		7.246001E+02		-4.300121E+02
-4.551230E+02		7.686132E+02		-3.134902E+02
-1.131798E+02		5.799781E+02		-4.667983E+02
3.761877E+02		-2.727354E+02		-1.034524E+02
2.086813E+02		7.240288E+01		-2.810841E+02
-2.935099E+02		5.923052E+02		-2.987953E+02
9.063900E+01		-3.482810E+02		2.576420E+02
4.121815E+02		-2.504378E+02		-1.617437E+02
-1.312438E+02		1.428289E+02		-1.158509E+01
-1.944274E+02		1.922782E+02		2.149205E+00
-2.320660E+02		2.078466E+02		2.421942E+01
7.051565E+02		-2.067731E+02		-4.983834E+02
6.811456E+02		-9.888251E+01		-5.822631E+02
6.300124E+02		-2.057404E+01		-6.094384E+02
6.915539E+02		-3.000122E+02		-3.915418E+02
6.552173E+02		-3.326388E+02		-3.225785E+02
-1.104080E+02		4.141899E+02		-3.037819E+02
-2.617320E+01		-3.411951E+02		3.673683E+02
-6.180842E+01		-3.099113E+02		3.717198E+02
7.966760E+01		-5.069938E+02		4.273262E+02
6.142025E+01		-5.387604E+02		4.773402E+02
-4.727713E+02		2.021980E+02		2.705734E+02
-4.329539E+01		2.065705E+02		-1.632751E+02
-1.665943E+02		3.084967E+02		-1.419023E+02
-2.875674E+02		3.199847E+02		-3.241736E+01
6.469524E+01		-1.204569E+02		5.576167E+01
1.122777E+02		1.262910E+02		-2.385687E+02
-1.879165E+02		-8.714214E+01		2.750586E+02
-4.679320E+02		2.618685E+02		2.060635E+02
-4.799074E+02		2.948687E+02		1.850387E+02
-3.501936E+02		2.697573E+02		8.043634E+01
-3.768440E+02		3.165151E+02		6.032890E+01
-3.669502E+02		5.761463E+02		-2.091962E+02
-3.910217E+02		5.242455E+02		-1.332238E+02
1.805627E+02		2.474106E+02		-4.279733E+02
2.932439E+02		2.474071E+02		-5.406510E+02
1.676488E+02		9.915642E+01		-2.668052E+02
3.089657E+02		-1.850312E+01		-2.904626E+02
-4.493454E+02		-1.513188E+02		6.006642E+02
-4.319376E+02		-7.316817E+01		5.051058E+02
-4.519453E+02		-1.738658E+02		6.258111E+02
-4.498077E+02		-2.296185E+02		6.794262E+02
-4.165653E+02		-1.349760E+01		4.300629E+02
-4.268834E+02		-5.456068E+01		4.814440E+02
7.504221E+01		-2.432760E+02		1.682338E+02
9.293944E+01		-3.281325E+02		2.351931E+02
-3.147114E+02		1.637035E+02		1.510079E+02
-3.347415E+02		2.362315E+02		9.851001E+01
-2.203168E+02		3.308844E+02		-1.105676E+02
-1.925760E+02		6.532577E+02		-4.606817E+02
-8.376624E+01		9.918405E+01		-1.541781E+01
4.330115E+01		-8.159853E+01		3.829738E+01
-5.864006E+01		7.852376E+01		-1.988370E+01
-2.182582E+00		1.583520E+02		-1.561694E+02
-1.603695E+02		1.681434E+02		-7.773836E+00
-1.055099E+02		1.188547E+02		-1.334483E+01
6.981892E+02		-1.570048E+02		-5.411845E+02
7.047336E+02		-2.544756E+02		-4.502579E+02
-2.198240E+01		1.813420E+02		-1.593596E+02
7.933780E+01		-4.646124E+02		3.852746E+02
-3.202757E+02		5.970946E+02		-2.768189E+02
4.822677E+00		6.817589E+01		-7.299856E+01
-4.457223E+02		-1.305102E+02		5.762325E+02
-4.368377E+02		-9.180502E+01		5.286428E+02
7.163340E+01		1.385751E+02		-2.102085E+02
5.899108E+02		9.358295E+00		-5.992691E+02
6.623246E+02		-6.108613E+01		-6.012384E+02
-3.842199E+02		5.580663E+01		3.284133E+02
-2.162154E+02		6.712121E+02		-4.549967E+02
-2.415130E+02		-6.072316E+01		3.022362E+02
6.289551E+02		-3.373236E+02		-2.916315E+02
6.765612E+02		-3.194613E+02		-3.570998E+02
3.791795E+02		3.105291E+02		-6.897085E+02
2.878510E+02		5.009568E+02		-7.888078E+02
2.880789E+01		3.148179E+02		-3.436258E+02
4.458974E+01		-2.045982E+02		1.600085E+02
-3.686719E+02		7.608708E+02		-3.921988E+02
-4.450034E+02		6.522531E+02		-2.072497E+02
-9.320630E+01		5.576187E+02		-4.644124E+02
-5.066986E+02		3.345417E+02		1.721569E+02
-3.942056E+02		3.415174E+02		5.268820E+01
-3.645284E+02		2.963638E+02		6.816451E+01
-2.749353E+02		1.166535E+01		2.632699E+02
7.238811E+01		-1.522967E+02		7.990854E+01
-7.336508E+01		5.352071E+02		-4.618421E+02
-8.125049E+01		3.928854E+02		-3.116350E+02
7.003063E+02		-2.780266E+02		-4.222797E+02
3.484474E+02		-2.656474E+02		-8.280000E+01
6.915250E+02		-1.295214E+02		-5.620036E+02
1.392468E+02		2.582901E+02		-3.975369E+02
-2.632981E+02		7.048607E+02		-4.415626E+02
2.781708E+02		1.369175E+01		-2.918626E+02
3.388776E+02		-5.462620E+01		-2.842514E+02
-1.515034E+02		6.178945E+02		-4.663912E+02
3.202656E+02		2.554990E+02		-5.757646E+02
-4.800564E+02		7.207667E+02		-2.407102E+02
-1.944968E+01		-1.451344E+02		1.645841E+02
3.362676E+02		4.581360E+02		-7.944036E+02
3.831968E+02		3.567533E+02		-7.399501E+02
-2.398920E+02		6.888096E+02		-4.489176E+02
2.131384E+02		2.427760E+02		-4.559144E+02
3.996154E+02		-2.675986E+02		-1.320168E+02
8.134044E+01		-3.922938E+02		3.109534E+02
-2.779303E+02		2.663049E+02		1.162541E+01
-4.116533E+02		7.718042E+02		-3.601510E+02
-3.188974E+02		4.116279E+01		2.777346E+02
2.683163E+02		2.432954E+02		-5.116116E+02
-3.304086E+02		7.442891E+02		-4.138805E+02
4.107824E+02		-1.888478E+02		-2.219346E+02
7.607253E+01		-4.406462E+02		3.645737E+02
-1.450516E+02		-1.597660E+02		3.048176E+02
-5.257813E+00		3.395907E+02		-3.343329E+02
-5.875722E+01		3.788323E+02		-3.200751E+02
-4.533038E+02		4.019616E+02		5.134223E+01
4.663317E+01		-1.766949E+02		1.300617E+02
-1.301395E+02		2.858572E+02		-1.557177E+02
3.655007E+02		2.863625E+02		-6.518632E+02
6.023700E+01		2.947714E+02		-3.550084E+02
-2.579957E+02		3.356341E+02		-7.763844E+01
-2.437040E+02		-1.959444E+01		2.632985E+02
-4.761068E+02		7.502430E+02		-2.741362E+02
-4.690295E+02		6.870170E+02		-2.179874E+02
3.168773E+02		-2.450067E+02		-7.187061E+01
-6.956946E+01		2.347086E+02		-1.651391E+02
1.195869E-01		-1.698147E+02		1.696951E+02
-5.633421E+01		5.140561E+02		-4.577219E+02
-3.521840E+02		5.390379E+01		2.982802E+02
1.401690E+02		1.138888E+02		-2.540578E+02
3.125767E+02		4.823273E+02		-7.949039E+02
2.621215E+02		5.127240E+02		-7.748455E+02
3.833466E+02		3.325584E+02		-7.159051E+02
-2.887111E+02		2.940821E+02		-5.371011E+00
3.774558E+02		3.824966E+02		-7.599524E+02
-1.933045E+02		3.211814E+02		-1.278769E+02
7.219716E+01		-5.245067E+02		4.523096E+02
LINES 191 573
2		0		29
2		1		31
2		2		73
2		3		36
2		4		197
2		5		193
2		6		129
2		7		190
2		8		50
2		9		137
2		10		164
2		11		85
2		12		59
2		13		62
2		14		64
2		15		66
2		16		145
2		17		84
2		18		182
2		19		78
2		20		133
2		21		138
2		22		86
2		23		88
2		24		171
2		25		164
2		26		137
2		26		95
2		26		187
2		27		151
2		27		182
2		27		55
2		28		95
2		28		178
2		29		178
2		30		110
2		30		31
2		31		135
2		32		100
2		32		101
2		33		100
2		33		128
2		34		183
2		34		191
2		35		101
2		35		36
2		37		168
2		37		174
2		38		162
2		38		184
2		39		165
2		39		200
2		40		157
2		40		185
2		41		180
2		41		179
2		42		72
2		42		159
2		43		132
2		43		121
2		44		172
2		44		69
2		45		160
2		45		53
2		46		75
2		46		176
2		47		130
2		47		131
2		48		108
2		48		109
2		49		109
2		49		50
2		51		110
2		51		111
2		52		176
2		52		53
2		54		112
2		54		113
2		55		112
2		55		143
2		56		125
2		56		79
2		57		170
2		57		74
2		58		170
2		58		177
2		59		147
2		60		114
2		60		115
2		61		114
2		61		62
2		63		148
2		63		181
2		64		181
2		65		96
2		65		89
2		66		89
2		67		124
2		67		79
2		68		175
2		68		158
2		69		188
2		70		161
2		70		146
2		71		155
2		71		169
2		72		104
2		73		128
2		74		113
2		75		169
2		76		122
2		76		123
2		77		122
2		77		78
2		80		134
2		80		156
2		81		134
2		81		133
2		82		139
2		82		154
2		83		139
2		83		138
2		84		153
2		85		86
2		87		127
2		87		202
2		88		202
2		90		191
2		90		126
2		91		183
2		91		201
2		92		186
2		92		199
2		93		151
2		93		119
2		94		132
2		94		195
2		96		97
2		97		147
2		98		115
2		98		149
2		99		149
2		99		148
2		102		157
2		102		168
2		103		162
2		103		174
2		104		195
2		105		160
2		105		159
2		106		108
2		106		130
2		107		111
2		107		131
2		116		201
2		116		186
2		117		161
2		117		136
2		118		123
2		118		120
2		121		126
2		124		156
2		125		154
2		127		177
2		135		194
2		136		167
2		140		184
2		140		198
2		141		196
2		141		197
2		142		179
2		142		185
2		143		192
2		144		175
2		144		172
2		145		189
2		146		152
2		150		173
2		150		187
2		152		193
2		153		180
2		155		190
2		158		167
2		163		188
2		163		189
2		164		192
2		165		196
2		166		198
2		166		200
2		171		199
2		173		194
POINT_DATA 203
scalars NodeType integer
LOOKUP_TABLE default
7
7
7
7
7
7
7
7
7
7
7
7
7
7
7
7
7
7
7
7
7
7
7
7
7
7
0
0
0
0
0
0
0
0
0
0
0
0
0
0
0
0
0
0
0
0
0
0
0
0
0
0
0
0
0
0
0
0
0
0
0
0
0
0
0
0
0
0
0
0
0
0
0
0
0
0
0
0
0
0
0
0
0
0
0
0
0
0
0
0
0
0
0
0
0
0
0
0
0
0
0
0
0
0
0
0
0
0
0
0
0
0
0
0
0
0
0
0
0
9
9
0
0
0
0
0
0
0
0
9
0
0
0
0
0
0
0
0
0
0
0
0
0
0
0
0
0
0
0
0
0
0
0
0
0
0
0
0
0
0
0
0
0
0
0
0
0
0
0
0
0
0
0
0
0
0
0
0
0
0
0
0
0
0
0
0
0
0
0
0
0
0
0
0
0
0
0
0
0
0
0
0
0
CELL_DATA 191
SCALARS SlipSystem integer
LOOKUP_TABLE default
3
3
3
3
1
1
1
1
2
2
2
2
2
2
2
2
1
1
3
3
2
2
2
2
1
1
2
3
1
13
3
1
3
3
3
2
2
1
3
3
3
3
1
1
3
3
1
1
1
1
1
1
1
1
1
1
1
1
1
1
1
1
1
1
1
1
2
2
2
2
2
2
2
2
1
1
2
2
2
3
2
2
2
2
2
2
2
2
2
2
2
2
2
2
2
2
2
2
2
1
1
1
1
1
1
1
1
3
2
1
3
3
3
3
2
2
2
2
2
2
2
2
1
2
2
2
2
1
1
1
1
1
1
13
13
1
1
2
2
2
2
2
2
1
1
1
1
1
1
1
2
2
2
2
1
1
1
1
3
3
1
2
2
2
1
1
1
1
1
1
1
1
3
1
1
1
1
1
1
1
1
1
1
1
1
3
1
1
1
1
1
