# vtk DataFile Version 1.0
dislocation microstructure
ASCII
DATASET POLYDATA
POINTS 225 float
-1.407136E+02		-2.213016E+02		3.620151E+02
-4.069171E+02		1.959506E+01		3.873221E+02
-2.678171E+02		5.735064E+02		-3.056893E+02
-3.585793E+02		4.159045E+02		-5.732522E+01
2.435975E+02		5.088909E+02		-7.524885E+02
-3.645297E+01		4.790810E+02		-4.426281E+02
1.137360E+01		4.804267E+01		-5.941627E+01
2.977420E+02		-2.208350E+02		-7.690702E+01
-3.705953E+02		-3.364613E+02		7.070566E+02
-2.633774E+02		-5.962946E+01		3.230069E+02
-5.059046E+01		-1.177741E+02		1.683646E+02
-3.709113E+00		-3.770962E+02		3.808053E+02
-5.645235E+02		3.793574E+02		1.851661E+02
-3.703694E+02		9.044315E+01		2.799262E+02
-5.304416E+02		4.354699E+02		9.497178E+01
-5.136564E+02		1.737037E+02		3.399526E+02
-4.002894E+02		6.227393E+02		-2.224499E+02
-1.296146E+02		4.379697E+02		-3.083551E+02
3.132033E+01		-1.863970E+02		1.550767E+02
-2.594066E+02		2.052232E+02		5.418340E+01
5.559540E+02		2.224913E+01		-5.782031E+02
6.021915E+02		-3.324134E+02		-2.697781E+02
-9.943729E+01		-2.899623E+02		3.893996E+02
3.188077E+01		-5.505567E+02		5.186760E+02
-2.457631E+02		2.346175E+02		1.114560E+01
-1.949524E+01		-1.452330E+02		1.647282E+02
-1.770745E+02		-7.200946E+01		2.490840E+02
7.055565E+01		-1.181444E+02		4.758874E+01
-1.434283E+02		-1.336264E+02		2.770547E+02
-1.307654E+02		-1.895733E+02		3.203387E+02
-4.296070E+02		2.293123E+01		4.066758E+02
-4.199373E+02		2.563768E+01		3.942996E+02
-4.004949E+02		5.669051E+02		-1.664102E+02
-3.561524E+02		6.071860E+02		-2.510336E+02
-2.868908E+02		2.133213E+02		7.356945E+01
-4.029123E+02		4.939560E+02		-9.104370E+01
-3.863914E+02		4.502879E+02		-6.389650E+01
2.858191E+02		1.555992E+02		-4.414183E+02
4.154263E+02		1.950211E+02		-6.104474E+02
4.233964E+02		3.931003E+02		-8.164967E+02
4.826646E+02		-2.839915E+02		-1.986731E+02
4.077974E+02		-5.832433E+01		-3.494731E+02
2.761860E+02		9.224685E+01		-3.684329E+02
4.719972E+02		-1.830227E+02		-2.889745E+02
-4.764610E+02		8.457563E+02		-3.692953E+02
4.240451E+02		-8.307740E+01		-3.409677E+02
4.869597E+02		-2.650088E+02		-2.219509E+02
-4.805116E+02		-8.582132E+01		5.663329E+02
-4.861458E+02		-1.848952E+02		6.710410E+02
-4.553355E+02		-2.709086E+02		7.262441E+02
-4.116530E+02		-3.149065E+02		7.265594E+02
-4.579703E+02		-9.629433E+00		4.675998E+02
4.631219E+02		-1.583070E+02		-3.048148E+02
4.452233E+02		-1.200992E+02		-3.251241E+02
1.200233E+02		-2.955514E+02		1.755281E+02
1.041310E+02		-2.552739E+02		1.511429E+02
7.421489E+02		-2.502241E+02		-4.919249E+02
1.282366E+02		-3.919882E+02		2.637516E+02
1.220320E+02		-4.469548E+02		3.249228E+02
-5.311441E+02		3.621906E+02		1.689535E+02
-2.830866E+02		1.886837E+02		9.440287E+01
-2.981453E+02		1.097550E+02		1.883903E+02
-3.197453E+02		1.015299E+02		2.182154E+02
-4.120184E+02		3.943800E+02		1.763841E+01
-4.873568E+02		4.334558E+02		5.390097E+01
-4.541558E+02		2.137914E+02		2.403644E+02
-4.788218E+02		1.806278E+02		2.981940E+02
7.407548E+02		-1.972896E+02		-5.434652E+02
-2.882095E+02		7.876894E+02		-4.994799E+02
-5.098338E+02		8.366563E+02		-3.268225E+02
-7.368105E+01		6.101426E+02		-5.364615E+02
3.910766E+02		-3.208715E+02		-7.020511E+01
2.336762E+02		1.303719E+02		-3.640480E+02
-2.936125E+02		5.976062E+02		-3.039937E+02
1.293238E+02		-3.693975E+02		2.400738E+02
4.777078E+02		-3.026067E+02		-1.751010E+02
-1.198856E+02		1.624805E+02		-4.259488E+01
-1.952274E+02		2.097950E+02		-1.456761E+01
-2.362001E+02		2.178498E+02		1.835030E+01
7.428845E+02		-2.241717E+02		-5.187128E+02
7.115520E+02		-9.965776E+01		-6.118943E+02
6.367080E+02		-9.942136E+00		-6.267659E+02
7.146680E+02		-3.209840E+02		-3.936840E+02
6.641838E+02		-3.461413E+02		-3.180425E+02
-1.407920E+02		4.122114E+02		-2.714194E+02
-2.291124E+01		-3.400400E+02		3.629513E+02
-6.104658E+01		-3.078644E+02		3.689110E+02
1.003109E+02		-5.225105E+02		4.221996E+02
6.773484E+01		-5.480884E+02		4.803536E+02
-4.635737E+02		1.943640E+02		2.692097E+02
1.174416E+02		-2.434720E+02		1.260304E+02
-1.639385E+02		3.727232E+02		-2.087846E+02
-3.506338E+02		3.644818E+02		-1.384797E+01
6.968878E+01		-1.166860E+02		4.699719E+01
-2.379801E+01		4.883283E+02		-4.645303E+02
-2.102141E+01		5.228432E+02		-5.018218E+02
-4.529719E+02		2.567340E+02		1.962379E+02
-4.677255E+02		2.959766E+02		1.717489E+02
-3.143526E+02		2.679947E+02		4.635789E+01
-3.481814E+02		3.387367E+02		9.444703E+00
-3.833772E+02		5.927116E+02		-2.093344E+02
-4.069102E+02		5.331643E+02		-1.262541E+02
2.141782E+02		1.604843E+02		-3.746625E+02
3.488214E+02		1.637982E+02		-5.126196E+02
-2.282128E+02		1.901856E+01		2.091943E+02
3.543564E+02		1.176546E+01		-3.661219E+02
-4.866646E+02		-1.297799E+02		6.164445E+02
-4.713238E+02		-4.663757E+01		5.179614E+02
-4.877679E+02		-1.551899E+02		6.429578E+02
-4.784115E+02		-2.225952E+02		7.010067E+02
-4.463563E+02		9.241780E+00		4.371146E+02
-4.654771E+02		-2.799166E+01		4.934687E+02
1.041407E+02		-2.682132E+02		1.640726E+02
1.288080E+02		-3.445327E+02		2.157248E+02
-2.821806E+02		1.475232E+02		1.346573E+02
-2.416452E+02		3.999335E+02		-1.582883E+02
-1.648227E+02		7.006497E+02		-5.358269E+02
-6.946017E+01		1.137658E+02		-4.430564E+01
4.331444E+01		-8.159798E+01		3.828354E+01
-4.642147E+01		8.138105E+01		-3.495958E+01
-1.542864E+02		1.878965E+02		-3.361011E+01
-9.155119E+01		1.373030E+02		-4.575181E+01
7.357740E+02		-1.688419E+02		-5.669321E+02
7.379839E+02		-2.753963E+02		-4.625876E+02
1.155021E+02		-4.848267E+02		3.693246E+02
-3.257309E+02		6.094217E+02		-2.836908E+02
4.120239E+00		6.856047E+01		-7.268071E+01
-4.840627E+02		-1.069570E+02		5.910197E+02
-4.762561E+02		-6.583229E+01		5.420884E+02
5.904853E+02		1.605397E+01		-6.065393E+02
6.829393E+02		-5.440454E+01		-6.285348E+02
-4.264016E+02		1.093554E+02		3.170462E+02
-1.935324E+02		7.239028E+02		-5.303703E+02
-2.370083E+02		-7.020358E+01		3.072119E+02
6.317587E+02		-3.443669E+02		-2.873918E+02
6.926749E+02		-3.377167E+02		-3.549581E+02
4.547099E+02		2.582032E+02		-7.129131E+02
2.707434E+02		5.457533E+02		-8.164967E+02
4.249130E+01		-2.278352E+02		1.853439E+02
-3.811279E+02		8.306739E+02		-4.495460E+02
-4.534051E+02		6.291260E+02		-1.757209E+02
-4.940814E+01		5.783606E+02		-5.289525E+02
-5.004737E+02		3.377357E+02		1.627380E+02
-3.704550E+02		3.605260E+02		9.929020E+00
-4.342359E+02		-2.943421E+02		7.285780E+02
-2.475708E+02		4.193086E+01		2.056399E+02
-2.879772E+02		1.262366E+02		1.617405E+02
-2.897491E+01		5.441772E+02		-5.152023E+02
-1.206703E+02		3.670582E+02		-2.463879E+02
7.292219E+02		-2.996030E+02		-4.296189E+02
3.432169E+02		-2.935680E+02		-4.964887E+01
7.269482E+02		-1.370256E+02		-5.899226E+02
-2.503776E+02		7.644799E+02		-5.141023E+02
3.166157E+02		5.299946E+01		-3.696152E+02
3.905879E+02		-3.368484E+01		-3.569031E+02
-1.176054E+02		6.576364E+02		-5.400311E+02
3.815373E+02		1.748299E+02		-5.563672E+02
-5.335769E+02		7.353553E+02		-2.017784E+02
-1.964432E+01		-1.451494E+02		1.647937E+02
-2.125681E+02		-7.439017E+01		2.869583E+02
4.516791E+02		3.334535E+02		-7.851327E+02
-2.215798E+02		7.447869E+02		-5.232071E+02
2.498847E+02		1.559608E+02		-4.058454E+02
4.439718E+02		-3.271381E+02		-1.168338E+02
1.255283E+02		-4.191205E+02		2.935922E+02
-2.924060E+02		2.353195E+02		5.708656E+01
-4.407960E+02		8.448992E+02		-4.041031E+02
-5.215492E+02		7.091295E+02		-1.875802E+02
3.178809E+02		1.580648E+02		-4.759456E+02
-3.329393E+02		8.110679E+02		-4.781287E+02
1.043184E+02		-1.559852E+02		5.166678E+01
4.797921E+02		-2.075011E+02		-2.722910E+02
1.194894E+02		-4.638703E+02		3.443809E+02
-1.341898E+02		-1.622988E+02		2.964886E+02
-4.499499E+02		4.180580E+02		3.189192E+01
4.576694E+01		-1.750245E+02		1.292576E+02
-1.199351E+02		3.513731E+02		-2.314380E+02
4.388625E+02		2.202821E+02		-6.591445E+02
-2.987309E+02		4.041375E+02		-1.054066E+02
-2.093161E+02		-4.174468E+00		2.134906E+02
-5.403208E+02		7.964027E+02		-2.560820E+02
-5.061626E+02		6.832525E+02		-1.770899E+02
3.053815E+02		-2.524337E+02		-5.294779E+01
-6.072500E+00		-1.736991E+02		1.797716E+02
-1.531986E+01		5.019090E+02		-4.865891E+02
-3.697260E+02		9.298296E+01		2.767430E+02
-4.351720E+02		5.032247E+01		3.848495E+02
2.421694E+02		5.418247E+02		-7.839940E+02
4.578139E+02		2.943040E+02		-7.521179E+02
1.284305E+02		-2.289773E+02		1.005468E+02
-3.347250E+02		3.042782E+02		3.044681E+01
4.361861E+02		3.739012E+02		-8.100873E+02
-2.025164E+02		3.883984E+02		-1.858821E+02
8.635075E+01		-5.377616E+02		4.514108E+02
1.095353E+02		-5.045676E+02		3.950323E+02
-3.307873E+02		3.932168E+02		-6.242947E+01
-4.424778E+02		7.579072E+01		3.666871E+02
-2.778478E+02		7.159775E+01		2.062500E+02
1.360531E+01		-2.005613E+02		1.869560E+02
-4.182368E+02		6.115223E+02		-1.932855E+02
-4.812176E+02		6.530721E+02		-1.718545E+02
-4.114177E+02		8.394695E+02		-4.280518E+02
5.681877E+01		-1.618528E+02		1.050340E+02
1.206219E+02		-1.862792E+02		6.565737E+01
-5.293568E+02		8.202333E+02		-2.908765E+02
-1.557662E+02		-1.074165E+02		2.631827E+02
-2.703651E+02		4.043419E+02		-1.339768E+02
4.854885E+02		-2.364208E+02		-2.490677E+02
-3.954292E+02		1.090172E+02		2.864120E+02
-5.413508E+02		7.678178E+02		-2.264670E+02
-1.895162E+02		-3.647172E+01		2.259879E+02
-2.621886E+02		2.250478E+02		3.714088E+01
1.261446E+02		-3.211733E+02		1.950287E+02
-1.408764E+02		6.796458E+02		-5.387694E+02
3.989464E+02		1.840374E+02		-5.829837E+02
-9.523622E+01		6.346196E+02		-5.393834E+02
4.630759E+02		-3.179532E+02		-1.451227E+02
4.479563E+02		2.383915E+02		-6.863478E+02
4.191851E+02		-3.275793E+02		-9.160578E+01
6.606703E+02		-3.068353E+01		-6.299868E+02
-3.515117E+02		1.009546E+02		2.505570E+02
8.758043E+01		-2.506448E+02		1.630643E+02
-4.516202E+02		2.340610E+02		2.175592E+02
-4.388090E+02		9.540093E+01		3.434080E+02
6.426329E+01		-1.455252E+02		8.126191E+01
LINES 214 642
2		0		29
2		1		31
2		2		73
2		3		36
2		4		187
2		5		94
2		6		126
2		7		182
2		8		50
2		9		133
2		10		158
2		11		85
2		12		59
2		13		185
2		14		64
2		15		66
2		16		199
2		17		84
2		18		175
2		19		78
2		20		129
2		21		134
2		22		86
2		23		88
2		24		211
2		25		158
2		26		205
2		26		210
2		26		159
2		27		93
2		27		170
2		27		224
2		28		173
2		28		205
2		29		173
2		30		110
2		30		31
2		31		186
2		32		100
2		32		101
2		33		100
2		33		125
2		34		165
2		34		60
2		35		101
2		35		36
2		37		162
2		37		168
2		38		177
2		38		214
2		39		191
2		40		75
2		40		46
2		41		154
2		41		45
2		42		72
2		42		153
2		43		171
2		43		52
2		44		166
2		44		69
2		45		53
2		46		207
2		47		127
2		47		128
2		48		108
2		48		109
2		49		109
2		49		144
2		50		144
2		51		110
2		51		111
2		52		53
2		54		212
2		54		112
2		55		221
2		55		90
2		56		123
2		56		79
2		57		164
2		57		74
2		58		164
2		58		172
2		59		142
2		60		114
2		61		62
2		61		146
2		62		197
2		62		220
2		63		143
2		63		174
2		64		174
2		65		89
2		65		222
2		66		89
2		67		122
2		67		79
2		68		169
2		68		152
2		69		204
2		70		141
2		70		215
2		71		150
2		71		218
2		72		102
2		73		125
2		74		113
2		75		216
2		76		120
2		76		121
2		77		120
2		77		78
2		80		130
2		80		151
2		81		129
2		81		219
2		82		135
2		82		149
2		83		135
2		83		134
2		84		148
2		85		86
2		87		193
2		87		194
2		88		193
2		90		189
2		91		176
2		91		192
2		92		195
2		92		99
2		93		118
2		94		184
2		95		147
2		95		184
2		96		222
2		96		97
2		97		142
2		98		165
2		98		190
2		99		143
2		99		190
2		102		162
2		103		156
2		103		168
2		104		179
2		104		145
2		105		154
2		105		153
2		106		108
2		106		127
2		107		111
2		107		128
2		112		221
2		113		212
2		114		146
2		115		192
2		115		206
2		116		132
2		116		213
2		117		121
2		117		119
2		122		151
2		123		149
2		124		194
2		124		172
2		130		219
2		131		223
2		131		208
2		132		161
2		133		159
2		136		188
2		136		217
2		137		187
2		138		221
2		138		198
2		139		169
2		139		201
2		140		199
2		140		200
2		141		147
2		145		197
2		148		176
2		150		182
2		152		161
2		155		213
2		155		215
2		156		214
2		157		209
2		157		167
2		158		183
2		160		188
2		160		191
2		163		218
2		163		216
2		165		211
2		166		201
2		167		181
2		170		203
2		171		207
2		175		202
2		177		217
2		178		206
2		178		195
2		179		210
2		180		204
2		180		209
2		181		200
2		183		198
2		185		220
2		185		208
2		186		196
2		189		203
2		196		223
2		202		224
POINT_DATA 225
scalars NodeType integer
LOOKUP_TABLE default
7
7
7
7
7
7
7
7
7
7
7
7
7
7
7
7
7
7
7
7
7
7
7
7
7
7
0
0
0
0
0
0
0
0
0
0
0
0
0
8
0
0
0
0
0
0
0
0
0
0
0
0
0
0
0
0
0
0
0
0
0
0
0
0
0
0
0
0
0
0
0
0
0
0
0
0
0
0
0
0
0
0
0
0
0
0
0
0
0
0
0
0
0
0
0
0
0
0
0
0
0
0
0
0
0
0
0
0
0
0
0
0
0
0
0
0
0
0
9
9
0
0
0
0
0
0
9
0
0
0
0
0
0
0
0
0
0
8
0
0
0
0
0
0
0
0
0
0
0
0
0
0
0
0
0
0
0
0
0
0
0
0
0
0
0
0
0
0
0
0
0
0
0
0
0
0
0
0
0
0
0
0
0
0
0
0
0
0
0
0
0
0
0
0
0
0
0
0
0
0
0
0
0
0
0
0
0
0
0
0
0
0
0
0
0
0
0
0
0
0
0
0
0
0
0
CELL_DATA 214
SCALARS SlipSystem integer
LOOKUP_TABLE default
3
3
3
3
1
1
1
1
2
2
2
2
2
2
2
2
1
1
3
3
2
2
2
2
1
1
3
1
2
13
1
3
3
3
3
2
2
1
3
3
3
3
2
2
3
3
1
1
1
1
1
1
1
1
1
1
1
1
1
1
1
1
1
2
2
2
2
2
2
2
2
2
1
2
2
1
1
2
2
2
2
2
2
2
2
2
2
1
3
2
2
2
2
2
2
2
2
1
1
1
1
1
1
1
1
3
2
1
3
3
3
3
2
2
2
2
2
2
2
2
1
2
2
2
2
1
1
1
1
1
13
1
1
1
2
2
2
3
3
2
3
1
1
1
1
1
1
1
2
2
2
2
2
2
2
1
1
1
1
3
3
2
2
2
2
2
1
1
1
2
1
1
1
3
3
1
1
1
1
1
1
1
1
1
1
1
1
1
1
3
1
1
1
1
1
1
1
1
1
3
1
1
1
1
1
1
1
3
3
1
1
1
1
3
