# vtk DataFile Version 1.0
dislocation microstructure
ASCII
DATASET POLYDATA
POINTS 266 float
-1.407136E+02		-2.213016E+02		3.620151E+02
-4.069171E+02		1.959506E+01		3.873221E+02
-2.678171E+02		5.735064E+02		-3.056893E+02
-3.585793E+02		4.159045E+02		-5.732522E+01
2.435975E+02		5.088909E+02		-7.524885E+02
-3.645297E+01		4.790810E+02		-4.426281E+02
1.137360E+01		4.804267E+01		-5.941627E+01
2.977420E+02		-2.208350E+02		-7.690702E+01
-3.705953E+02		-3.364613E+02		7.070566E+02
-2.633774E+02		-5.962946E+01		3.230069E+02
-5.059046E+01		-1.177741E+02		1.683646E+02
-3.709113E+00		-3.770962E+02		3.808053E+02
-5.645235E+02		3.793574E+02		1.851661E+02
-3.703694E+02		9.044315E+01		2.799262E+02
-5.304416E+02		4.354699E+02		9.497178E+01
-5.136564E+02		1.737037E+02		3.399526E+02
-4.002894E+02		6.227393E+02		-2.224499E+02
-1.296146E+02		4.379697E+02		-3.083551E+02
3.132033E+01		-1.863970E+02		1.550767E+02
-2.594066E+02		2.052232E+02		5.418340E+01
5.559540E+02		2.224913E+01		-5.782031E+02
6.021915E+02		-3.324134E+02		-2.697781E+02
-9.943729E+01		-2.899623E+02		3.893996E+02
3.188077E+01		-5.505567E+02		5.186760E+02
-2.457631E+02		2.346175E+02		1.114560E+01
-1.949524E+01		-1.452330E+02		1.647282E+02
-8.153135E+01		-1.702783E+02		2.518096E+02
6.390929E+02		1.820480E+01		-6.572977E+02
-4.678216E+02		-3.120863E+00		4.709425E+02
-1.045807E+02		-2.147736E+02		3.193544E+02
-1.622097E+02		1.585937E+02		3.616039E+00
-4.433925E+02		-5.053826E+00		4.484464E+02
1.337104E+02		-3.753983E+02		2.416879E+02
-3.750786E+02		6.343795E+02		-2.593009E+02
-4.099283E+02		2.630173E+02		1.469110E+02
-2.875046E+02		5.938022E+02		-3.062977E+02
-3.949170E+02		2.453521E+02		1.495649E+02
7.609142E+02		-4.866301E+01		-7.122512E+02
-5.340419E+02		4.824741E+02		5.156776E+01
-5.903706E+02		1.202359E+02		4.701348E+02
-1.179326E+02		-1.583665E+02		2.762991E+02
6.252348E+02		-5.961475E+01		-5.656201E+02
-2.294802E+01		-1.315630E+02		1.545110E+02
6.827405E+02		-2.294131E+02		-4.533274E+02
2.416317E+02		-1.161126E+02		-1.255192E+02
6.343605E+02		-8.560274E+01		-5.487578E+02
6.873332E+02		9.595610E+01		-7.832893E+02
-5.721599E+02		-2.425704E+01		5.964169E+02
-5.775345E+02		-1.549787E+02		7.325132E+02
-4.839330E+02		-2.954041E+02		7.793370E+02
-4.084894E+02		-3.341836E+02		7.426730E+02
-5.218152E+02		2.115293E+02		3.102859E+02
6.701369E+02		-1.871619E+02		-4.829750E+02
6.508150E+02		-1.310679E+02		-5.197472E+02
-2.935368E+02		9.965235E+02		-7.029868E+02
-5.215647E+02		-2.603280E+02		7.818927E+02
8.400526E+02		-3.129236E+02		-5.271290E+02
2.261126E+02		-4.427300E+02		2.166174E+02
2.167723E+02		-5.100680E+02		2.932956E+02
-5.306473E+02		3.691050E+02		1.615423E+02
-3.951915E+02		5.841832E+02		-1.889917E+02
1.273370E+01		4.036850E+02		-4.164187E+02
-3.307577E+01		4.559982E+02		-4.229224E+02
-5.618756E+02		5.201712E+02		4.170445E+01
-4.896939E+02		4.240977E+02		6.559621E+01
1.603914E+02		4.220580E+02		-5.824494E+02
-5.122974E+02		4.542182E+02		5.807926E+01
8.468970E+02		-2.417251E+02		-6.051719E+02
-2.614893E+02		9.746255E+02		-7.131362E+02
-4.597310E+02		3.769983E+02		8.273278E+01
1.960858E+02		4.957912E+02		-6.918769E+02
3.847914E+02		-4.844113E+02		9.961990E+01
-1.740959E+02		-1.350239E+02		3.091198E+02
-2.826094E+02		6.099753E+02		-3.273658E+02
-1.452210E+02		5.035852E+02		-3.583642E+02
6.843096E+02		-4.844884E+02		-1.998211E+02
-9.556575E+01		1.966460E+02		-1.010803E+02
-2.091721E+02		2.514673E+02		-4.229520E+01
6.952697E+02		-3.002830E+02		-3.949867E+02
8.465402E+02		-2.789139E+02		-5.676263E+02
7.913639E+02		-8.839810E+01		-7.029658E+02
6.645186E+02		3.097901E+01		-6.954976E+02
7.773441E+02		-3.919802E+02		-3.853638E+02
-5.886112E+01		-1.706022E+02		2.294633E+02
-1.707915E+02		5.318077E+02		-3.610161E+02
-1.932949E+01		-3.406443E+02		3.599738E+02
-5.982211E+01		-3.067498E+02		3.665719E+02
1.448906E+02		-5.743289E+02		4.294382E+02
7.637249E+01		-5.728110E+02		4.964385E+02
-4.954720E+02		2.512985E+02		2.441735E+02
2.741574E+02		-4.469384E+02		1.727810E+02
-2.188777E+02		5.686125E+02		-3.497349E+02
8.329888E+02		-1.755282E+02		-6.574607E+02
4.341423E+01		-8.159370E+01		3.817947E+01
-1.347879E+01		4.280384E+02		-4.145596E+02
1.631273E+02		4.454760E+02		-6.086033E+02
-4.658889E+02		2.766328E+02		1.892561E+02
-4.514314E+02		2.983819E+02		1.530495E+02
-4.439310E+02		3.493439E+02		9.458708E+01
-5.130105E+02		2.306809E+02		2.823296E+02
1.742394E+02		5.034444E+02		-6.776838E+02
-4.490861E+02		2.869379E+02		1.621482E+02
-3.530903E+02		9.932699E+01		2.537633E+02
-9.342071E+01		6.331298E+01		3.010774E+01
1.224676E+02		-1.242254E+01		-1.100451E+02
-5.848829E+02		-7.722197E+01		6.621048E+02
-5.423733E+02		1.181194E+01		5.305614E+02
-5.847280E+02		-1.119971E+02		6.967251E+02
-5.521057E+02		-2.175076E+02		7.696133E+02
2.189431E+02		-4.328322E+02		2.138891E+02
-5.299115E+02		2.852868E+01		5.013828E+02
1.670024E+02		-3.963366E+02		2.293342E+02
1.619121E+02		4.786334E+02		-6.405455E+02
-6.090434E+02		5.761279E+02		3.291557E+01
6.799217E+01		7.159209E+02		-7.839131E+02
-3.139193E+02		6.048304E+02		-2.909111E+02
-7.508724E+01		8.316670E+02		-7.565797E+02
-4.696325E+01		1.150942E+02		-6.813094E+01
-4.162276E+02		5.359716E+02		-1.197439E+02
-4.340717E+01		8.159401E+01		-3.818684E+01
2.163609E+02		-9.059559E+01		-1.257653E+02
-1.487658E+02		2.388002E+02		-9.003434E+01
-6.362627E+01		1.535381E+02		-8.991180E+01
8.404583E+02		-1.997122E+02		-6.407461E+02
8.269531E+02		-3.438737E+02		-4.830795E+02
3.318863E+02		-4.609583E+02		1.290720E+02
1.910780E+02		-5.483134E+02		3.572354E+02
-3.359648E+02		6.450334E+02		-3.090686E+02
3.498283E+00		6.889661E+01		-7.239489E+01
-5.804989E+02		-4.855072E+01		6.290496E+02
-5.594919E+02		-4.029371E+00		5.635213E+02
-3.437748E+02		1.034687E+03		-6.909121E+02
6.058932E+02		4.409282E+00		-6.103025E+02
7.257021E+02		-1.253920E+01		-7.131629E+02
4.236601E+02		-5.020605E+02		7.840046E+01
-1.183975E+02		8.692185E+02		-7.508210E+02
-2.426100E+02		-8.955359E+01		3.321636E+02
6.874886E+02		-4.054069E+02		-2.820817E+02
7.383397E+02		-4.059632E+02		-3.323765E+02
-5.613801E+02		6.812180E+01		4.932583E+02
8.119346E+01		7.353032E+02		-8.164967E+02
3.691721E+01		-2.975218E+02		2.606046E+02
3.093628E+00		-2.565597E+02		2.534660E+02
1.371974E+02		3.793931E+02		-5.165905E+02
-5.486925E+02		5.026650E+02		4.602743E+01
-1.093791E+02		8.781410E+01		2.156501E+01
-4.935426E+02		3.467237E+02		1.468190E+02
5.704351E+01		-1.187378E+02		6.169433E+01
-4.450226E+02		-3.200434E+02		7.650659E+02
-1.259751E+02		1.119815E+02		1.399362E+01
-1.254240E+02		4.703309E+02		-3.449069E+02
1.595842E+02		5.059994E+02		-6.655837E+02
-3.480940E+02		1.817561E+02		1.663379E+02
8.061037E+02		-3.708766E+02		-4.352271E+02
7.806261E+01		3.710121E+02		-4.490747E+02
8.249656E+02		-1.512636E+02		-6.737021E+02
-5.204075E+02		4.506096E+02		6.979786E+01
-2.067875E+02		9.368429E+02		-7.300555E+02
5.073768E+02		-5.304047E+02		2.302784E+01
6.185747E+02		-4.202446E+01		-5.765502E+02
1.966414E+00		7.574416E+02		-7.594081E+02
6.054009E+02		-1.319053E+01		-5.922103E+02
-7.092778E+02		6.839663E+02		2.531147E+01
6.112182E+02		-5.322522E+02		-7.896603E+01
-2.073852E+02		-1.165256E+02		3.239108E+02
-2.330737E+02		2.411939E+02		-8.120181E+00
-1.621944E+02		9.041009E+02		-7.419064E+02
-1.441058E+02		-1.483591E+02		2.924649E+02
5.504538E+02		-5.371656E+02		-1.328819E+01
2.256957E+02		-4.791325E+02		2.534368E+02
-3.982555E+02		4.579002E+02		-5.964471E+01
7.923423E+02		-3.822429E+02		-4.100995E+02
-6.762469E+02		6.494422E+02		2.680473E+01
2.452234E+02		-4.430040E+02		1.977806E+02
-3.206572E+02		1.016154E+03		-6.954964E+02
1.572953E+02		-3.835433E+01		-1.189409E+02
6.922690E+02		-2.728802E+02		-4.193888E+02
2.065369E+02		-5.293242E+02		3.227873E+02
-8.693255E+01		-1.891528E+02		2.760854E+02
-4.693162E+02		3.245110E+02		1.448052E+02
-3.440904E+02		6.141894E+02		-2.700990E+02
-4.155119E+02		5.036925E+02		-8.818059E+01
4.629880E+01		-1.761091E+02		1.298103E+02
-3.381897E+02		1.530537E+02		1.851359E+02
-2.718403E+02		5.878933E+02		-3.160529E+02
6.833021E+02		-3.576697E+02		-3.256323E+02
-3.591456E+02		6.439231E+02		-2.847776E+02
-8.151421E+01		3.668584E+01		4.482837E+01
-7.197173E+02		6.944964E+02		2.522083E+01
-6.366501E+02		6.065732E+02		3.007688E+01
2.736204E+02		-1.532116E+02		-1.204088E+02
6.948518E+02		1.216449E+02		-8.164967E+02
-4.118133E+01		-1.650327E+02		2.062141E+02
1.114147E+02		3.688936E+02		-4.803083E+02
-3.391307E+02		1.213509E+02		2.177798E+02
6.279309E+01		1.380048E+01		-7.659357E+01
-5.061287E+02		1.075812E+01		4.953705E+02
2.365383E+02		4.942512E+02		-7.307895E+02
6.726505E+02		-4.976270E+02		-1.750235E+02
-4.102910E+02		5.586490E+02		-1.483580E+02
-4.200755E+02		3.017789E+02		1.182966E+02
7.162745E+02		-4.084645E+02		-3.078100E+02
-2.602878E+02		5.881595E+02		-3.278717E+02
1.138987E+02		-5.781297E+02		4.642310E+02
1.705559E+02		-5.638614E+02		3.933055E+02
-3.327197E+01		-1.374881E+02		1.707601E+02
1.057853E+02		-3.565411E+02		2.507558E+02
-5.775002E+02		9.294584E+01		4.845544E+02
2.190050E+02		4.896439E+02		-7.086489E+02
-2.608308E+01		-2.079000E+02		2.339831E+02
-3.801832E+02		6.259727E+02		-2.457895E+02
-5.842535E+02		5.477654E+02		3.648810E+01
-3.624254E+02		1.051788E+03		-6.893629E+02
5.477283E+01		-1.601804E+02		1.054076E+02
6.773536E+02		5.443994E+01		-7.317935E+02
-3.687281E+02		2.140940E+02		1.546341E+02
-5.273788E+01		-2.761288E+01		8.035076E+01
-1.209716E+02		2.202630E+02		-9.929146E+01
6.945920E+02		-3.276005E+02		-3.669915E+02
-3.093236E+02		6.342429E+02		-3.249193E+02
6.269399E+02		-3.471798E+02		-2.797601E+02
-3.236269E+01		-6.647256E+01		9.883525E+01
-2.390395E+02		2.307455E+02		8.293957E+00
-3.810703E+02		4.339650E+02		-5.289476E+01
1.908092E+02		-4.122133E+02		2.214041E+02
-3.610870E+01		7.951183E+02		-7.590096E+02
-2.437045E+01		-9.919235E+01		1.235628E+02
3.894373E+01		7.218415E+02		-7.607852E+02
-4.096223E+02		4.822518E+02		-7.262949E+01
6.300097E+02		-5.275304E+02		-1.024793E+02
6.826013E+02		7.465197E+01		-7.572532E+02
4.639397E+02		-5.177898E+02		5.385013E+01
6.838036E+02		2.187919E+01		-7.056828E+02
-4.188960E+02		3.600621E+00		4.152954E+02
7.339432E+01		-3.316985E+02		2.583042E+02
7.585341E+02		-4.004455E+02		-3.580886E+02
9.427972E+01		4.466259E+00		-9.874598E+01
-5.830920E+02		2.107077E+02		3.723842E+02
5.825618E+01		-1.418476E+02		8.359146E+01
-1.943450E+02		5.509984E+02		-3.566534E+02
5.921721E+02		-5.365645E+02		-5.560764E+01
3.557662E+02		-4.710274E+02		1.152612E+02
-5.992955E+02		1.472729E+02		4.520226E+02
6.607613E+02		-5.104812E+02		-1.502801E+02
4.337797E+01		3.840704E+02		-4.274483E+02
1.537287E+02		4.001965E+02		-5.539252E+02
-5.242110E+02		1.917517E+02		3.324593E+02
-4.738474E+02		4.000881E+02		7.375922E+01
-3.730791E+02		6.209137E+02		-2.478346E+02
-1.818515E+02		2.508460E+02		-6.899449E+01
-2.348003E+02		9.564021E+02		-7.216018E+02
6.659337E+02		-3.611341E+02		-3.047995E+02
2.957048E+02		-1.888595E+02		-1.068452E+02
5.925064E+02		4.274836E+00		-5.967812E+02
6.605096E+02		-1.585144E+02		-5.019952E+02
-5.455318E+02		2.060557E+02		3.394760E+02
1.882189E+02		-6.454845E+01		-1.236704E+02
6.958760E+02		-4.496172E+02		-2.462588E+02
-5.675599E+02		-1.853650E+02		7.529249E+02
-1.989718E+02		1.971838E+02		1.788037E+00
-1.820257E+02		1.805254E+02		1.500294E+00
8.101258E+02		-1.197089E+02		-6.904169E+02
2.966984E+02		-4.500570E+02		1.533585E+02
-6.017830E+02		1.846375E+02		4.171455E+02
-3.843900E+02		5.978711E+02		-2.134810E+02
-4.823094E+02		2.633993E+02		2.189102E+02
LINES 258 774
2		0		29
2		1		233
2		2		184
2		3		223
2		4		197
2		5		62
2		6		128
2		7		252
2		8		50
2		9		136
2		10		205
2		11		85
2		12		59
2		13		102
2		14		156
2		15		246
2		16		210
2		17		150
2		18		182
2		19		222
2		20		253
2		21		220
2		22		86
2		23		88
2		24		222
2		25		205
2		26		178
2		26		40
2		26		83
2		27		81
2		27		132
2		28		196
2		28		31
2		29		178
2		30		149
2		30		260
2		31		233
2		32		206
2		32		111
2		33		186
2		33		210
2		34		101
2		34		36
2		34		200
2		35		115
2		35		184
2		36		215
2		37		133
2		37		80
2		38		66
2		38		144
2		39		242
2		39		207
2		40		167
2		41		159
2		41		45
2		42		226
2		42		205
2		43		176
2		43		52
2		44		120
2		44		190
2		45		53
2		46		230
2		46		191
2		47		129
2		47		130
2		48		107
2		48		258
2		49		148
2		49		55
2		50		148
2		51		246
2		51		99
2		52		254
2		53		254
2		54		174
2		54		68
2		55		108
2		56		124
2		56		79
2		57		169
2		57		109
2		58		169
2		58		177
2		59		146
2		60		199
2		60		264
2		61		244
2		61		94
2		62		94
2		63		211
2		63		144
2		64		247
2		64		66
2		65		245
2		65		95
2		66		156
2		67		123
2		67		79
2		68		250
2		69		98
2		69		247
2		70		100
2		70		208
2		71		134
2		71		241
2		72		164
2		72		167
2		73		219
2		73		184
2		74		150
2		74		84
2		75		257
2		75		198
2		76		122
2		76		217
2		77		165
2		77		249
2		78		218
2		78		176
2		80		261
2		81		232
2		81		214
2		82		235
2		82		171
2		83		192
2		84		239
2		85		86
2		87		203
2		87		204
2		88		203
2		89		99
2		89		265
2		90		262
2		90		173
2		91		202
2		91		239
2		92		155
2		92		123
2		93		147
2		95		112
2		96		101
2		96		265
2		97		101
2		97		179
2		98		200
2		100		151
2		102		194
2		103		187
2		103		145
2		104		175
2		104		236
2		105		107
2		105		129
2		106		110
2		106		130
2		108		258
2		109		173
2		109		224
2		110		196
2		110		139
2		111		224
2		112		151
2		113		211
2		113		189
2		114		140
2		114		227
2		115		180
2		116		135
2		116		225
2		117		122
2		117		119
2		118		199
2		118		181
2		120		256
2		121		249
2		121		217
2		124		153
2		125		241
2		125		262
2		126		204
2		126		177
2		127		186
2		127		219
2		131		174
2		131		212
2		132		253
2		133		232
2		134		231
2		135		166
2		136		164
2		137		251
2		137		257
2		137		201
2		138		201
2		138		235
2		139		207
2		141		234
2		141		142
2		142		209
2		143		245
2		143		193
2		145		149
2		146		179
2		147		238
2		152		183
2		152		215
2		153		171
2		154		244
2		154		193
2		155		261
2		157		166
2		157		250
2		158		231
2		158		168
2		159		161
2		160		225
2		160		227
2		161		253
2		162		172
2		162		188
2		163		240
2		163		229
2		165		222
2		168		240
2		170		223
2		170		228
2		172		189
2		175		256
2		180		248
2		181		228
2		182		213
2		183		194
2		184		202
2		185		218
2		185		251
2		190		252
2		192		205
2		192		209
2		195		236
2		197		208
2		198		243
2		206		234
2		210		248
2		213		238
2		214		230
2		216		221
2		220		251
2		221		226
2		222		259
2		229		243
2		237		255
2		237		263
2		242		263
2		246		255
2		248		264
2		259		260
POINT_DATA 266
scalars NodeType integer
LOOKUP_TABLE default
7
7
7
7
7
7
7
7
7
7
7
7
7
7
7
7
7
7
7
7
7
7
7
7
7
7
0
0
0
0
0
0
0
0
0
0
0
0
0
0
0
0
0
0
0
0
0
0
0
0
0
0
0
0
0
0
0
0
0
0
0
0
0
0
0
0
0
0
0
0
0
0
0
0
0
0
0
0
0
0
0
0
0
0
0
0
0
0
0
0
0
0
0
9
0
0
0
0
0
0
0
0
0
0
0
0
0
0
0
0
0
0
0
0
0
0
0
0
0
9
0
0
0
0
0
0
0
0
9
0
0
0
0
0
0
0
0
0
0
0
8
0
0
0
0
0
0
0
0
0
0
0
0
0
0
0
0
0
0
0
0
0
0
0
0
0
0
0
0
0
0
0
0
0
0
0
0
0
0
0
0
0
0
0
0
0
0
9
8
0
0
8
0
0
0
9
0
0
0
0
0
0
0
0
0
0
0
0
0
0
0
0
8
0
0
0
9
0
0
0
0
0
0
0
0
0
0
0
0
0
0
0
0
0
0
0
0
0
0
0
0
0
0
0
0
0
0
0
0
0
0
0
0
0
0
0
0
0
0
0
0
0
0
0
0
0
CELL_DATA 258
SCALARS SlipSystem integer
LOOKUP_TABLE default
3
3
3
3
1
1
1
1
2
2
2
2
2
2
2
2
1
1
3
3
2
2
2
2
1
1
3
2
1
3
3
3
3
3
1
1
3
3
3
3
3
1
2
3
1
1
2
2
2
1
1
1
1
2
1
1
1
1
1
1
1
1
1
1
1
2
2
2
2
2
2
2
3
3
1
1
1
1
2
2
2
2
2
2
2
2
3
3
1
1
1
1
1
3
3
1
1
2
2
2
1
3
3
1
1
1
1
2
2
3
3
1
1
1
1
3
3
3
3
1
1
2
2
1
2
2
1
1
2
2
2
2
3
3
1
1
1
1
2
2
3
1
3
3
2
2
3
1
2
1
1
1
1
2
2
2
2
2
1
3
3
1
3
1
1
1
1
1
1
1
1
3
3
3
3
1
3
3
2
1
1
2
2
3
3
1
1
3
2
1
1
2
3
1
2
2
2
1
3
3
3
1
1
1
2
3
2
2
2
1
1
2
1
1
1
1
1
1
1
1
1
1
1
1
3
1
3
3
1
1
1
3
3
2
1
1
1
1
2
3
1
1
1
3
2
3
1
1
2
1
1
1
1
1
1
1
3
1
