# vtk DataFile Version 1.0
dislocation microstructure
ASCII
DATASET POLYDATA
POINTS 295 float
-1.407136E+02		-2.213016E+02		3.620151E+02
-4.069171E+02		1.959506E+01		3.873221E+02
-2.678171E+02		5.735064E+02		-3.056893E+02
-3.585793E+02		4.159045E+02		-5.732522E+01
2.435975E+02		5.088909E+02		-7.524885E+02
-3.645297E+01		4.790810E+02		-4.426281E+02
1.137360E+01		4.804267E+01		-5.941627E+01
2.977420E+02		-2.208350E+02		-7.690702E+01
-3.705953E+02		-3.364613E+02		7.070566E+02
-2.633774E+02		-5.962946E+01		3.230069E+02
-5.059046E+01		-1.177741E+02		1.683646E+02
-3.709113E+00		-3.770962E+02		3.808053E+02
-5.645235E+02		3.793574E+02		1.851661E+02
-3.703694E+02		9.044315E+01		2.799262E+02
-5.304416E+02		4.354699E+02		9.497178E+01
-5.136564E+02		1.737037E+02		3.399526E+02
-4.002894E+02		6.227393E+02		-2.224499E+02
-1.296146E+02		4.379697E+02		-3.083551E+02
3.132033E+01		-1.863970E+02		1.550767E+02
-2.594066E+02		2.052232E+02		5.418340E+01
5.559540E+02		2.224913E+01		-5.782031E+02
6.021915E+02		-3.324134E+02		-2.697781E+02
-9.943729E+01		-2.899623E+02		3.893996E+02
3.188077E+01		-5.505567E+02		5.186760E+02
-2.457631E+02		2.346175E+02		1.114560E+01
-1.949524E+01		-1.452330E+02		1.647282E+02
-2.582081E+02		-1.903224E+02		4.485305E+02
-8.795571E+01		-3.175761E+02		4.055318E+02
-3.653528E+02		-1.240165E+02		4.893693E+02
-2.524066E+02		6.172000E+02		-3.647934E+02
1.356091E+02		-1.214990E+02		-1.411004E+01
-3.625696E+02		-6.951129E+01		4.320808E+02
-6.288394E+01		-4.802902E+02		5.431741E+02
-5.248477E+02		7.764764E+02		-2.516287E+02
1.164831E+02		3.145434E+02		-4.310265E+02
-4.213537E+02		-1.932375E+02		6.145912E+02
7.196189E+02		-2.223296E+02		-4.972893E+02
-3.447023E+02		-3.635739E+02		7.082762E+02
6.991426E+02		-1.540455E+02		-5.450971E+02
-2.791102E+02		3.250375E+02		-4.592736E+01
-5.087259E+02		7.901615E+02		-2.814356E+02
-2.956301E+02		2.716060E+02		2.402417E+01
2.500976E+02		4.638988E+02		-7.139964E+02
-4.948853E+01		8.610523E+02		-8.115638E+02
-3.532061E+02		3.314806E+02		2.172551E+01
6.357839E+02		-1.131075E+01		-6.244732E+02
5.735344E+02		-5.671913E+02		-6.343145E+00
-5.207171E+02		-2.095069E+02		7.302240E+02
-5.874691E+02		-2.290276E+02		8.164967E+02
-3.692220E+02		-4.472747E+02		8.164967E+02
-3.348178E+02		-3.986072E+02		7.334250E+02
-4.487806E+02		2.410148E+02		2.077658E+02
1.312235E+02		-3.674092E+02		2.361858E+02
3.072033E+02		-4.392470E+02		1.320437E+02
4.119810E+02		-5.110632E+02		9.908220E+01
-4.758628E+01		-5.824194E+02		6.300057E+02
-4.216916E+02		5.110211E+02		-8.932957E+01
6.737322E+02		-4.054459E+02		-2.682863E+02
2.738171E+02		-1.877492E+02		-8.606791E+01
-4.707749E+02		4.490917E+02		2.168320E+01
-5.626350E+02		6.808981E+02		-1.182631E+02
-3.253039E+02		1.035354E+03		-7.100497E+02
1.434439E+02		3.112243E+02		-4.546682E+02
-3.682959E+02		-4.387545E+01		4.121714E+02
-3.796157E+02		-1.558726E+02		5.354884E+02
6.732295E+02		5.445435E+01		-7.276839E+02
6.847875E+02		-4.498268E+02		-2.349607E+02
6.920478E+01		-1.219063E+02		5.270156E+01
-2.354469E+02		-1.787654E+02		4.142123E+02
1.163849E+02		-3.598757E+02		2.434909E+02
1.916899E+02		3.233574E+02		-5.150473E+02
3.674587E+02		-1.018954E+03		6.514949E+02
-1.723494E+02		-1.887428E+02		3.610921E+02
7.367494E+02		-3.224287E+02		-4.143207E+02
3.836595E+02		-4.942411E+02		1.105817E+02
-3.097211E+02		-1.103969E+02		4.201180E+02
-1.729760E+01		2.218094E+02		-2.045118E+02
-3.285506E+02		2.965116E+02		3.203899E+01
8.208608E+01		-9.650781E+01		1.442173E+01
-1.400248E+01		-2.032280E+02		2.172305E+02
-2.518266E+02		5.268535E+01		1.991412E+02
3.541666E+02		-4.746948E+02		1.205282E+02
-2.103344E+02		3.771334E+02		-1.667990E+02
2.133895E+01		-3.917312E+02		3.703923E+02
6.229734E+02		-3.556018E+02		-2.673716E+02
-1.808464E+02		9.560647E+02		-7.752183E+02
1.066613E+02		-3.836045E+02		2.769432E+02
-2.311517E+02		3.761841E+02		-1.450323E+02
7.416123E+02		-5.502693E+02		-1.913430E+02
-4.932335E+02		3.316810E+02		1.615526E+02
-4.316083E+01		-5.193496E+02		5.625104E+02
-1.499841E+02		9.361101E+02		-7.861260E+02
-1.253565E+02		4.869959E+02		-3.616394E+02
-4.847181E+00		3.836138E+02		-3.787666E+02
5.339547E+01		-3.990230E+02		3.456275E+02
-3.467545E+01		-6.149845E+02		6.496600E+02
5.781664E+02		2.095867E+01		-5.991251E+02
1.735360E+02		-3.771727E+02		2.036367E+02
6.607687E+02		4.076292E+01		-7.015316E+02
8.713436E+01		3.234254E+02		-4.105598E+02
-3.890809E+02		3.834371E+02		5.643861E+00
2.071747E+02		3.371831E+02		-5.443578E+02
-4.112265E+02		5.721887E+02		-1.609622E+02
-3.354127E+02		6.571805E+01		2.696947E+02
6.936134E+02		7.991811E+01		-7.735315E+02
8.227781E+01		-3.961357E+02		3.138579E+02
-5.360979E+02		7.618286E+02		-2.257306E+02
-4.425523E+02		4.427660E+02		-2.137387E-01
-1.535826E+02		3.636521E+02		-2.100695E+02
-3.908090E+02		-1.696414E+02		5.604505E+02
-6.233268E+02		7.676680E+02		-1.443412E+02
6.341543E+02		-5.672866E+02		-6.686778E+01
-4.974294E+01		-5.074426E+02		5.571855E+02
6.878029E+02		-1.202309E+02		-5.675720E+02
6.785041E+02		-9.482565E+01		-5.836785E+02
1.626239E+02		-1.363704E+02		-2.625352E+01
-5.169509E+02		6.563046E+02		-1.393536E+02
-3.100223E+02		7.188700E+02		-4.088477E+02
-1.770356E+01		-5.265040E+02		5.442075E+02
-5.269841E+02		5.652754E+02		-3.829132E+01
-6.103146E+00		1.967012E+02		-1.905980E+02
7.098063E+02		1.066903E+02		-8.164967E+02
-1.879654E+02		3.754434E+02		-1.874780E+02
4.412892E+02		-5.263773E+02		8.508807E+01
-2.835460E+02		5.941786E+02		-3.106327E+02
5.395225E+02		-5.614727E+02		2.195019E+01
3.372200E+02		-9.922220E+02		6.550019E+02
-3.454555E+02		-4.294274E+02		7.748829E+02
1.077014E+02		-8.028644E+02		6.951630E+02
-1.004368E+02		-3.551259E+02		4.555626E+02
-2.875364E+02		6.886478E+02		-4.011115E+02
7.123618E+02		-3.881276E+02		-3.242343E+02
-4.083226E+02		4.080061E+02		3.164906E-01
7.059153E+02		-5.338203E+02		-1.720951E+02
-1.182841E+02		3.425108E+02		-2.242267E+02
3.154226E+01		-2.763401E+02		2.447978E+02
-5.566920E+02		6.500488E+02		-9.335678E+01
-2.951140E+02		-7.348138E+01		3.685954E+02
-2.458308E+02		2.347235E+02		1.110731E+01
-3.563431E+01		2.540436E+02		-2.184093E+02
7.335529E+02		-3.560929E+02		-3.774600E+02
1.695333E+02		3.140923E+02		-4.836255E+02
8.612886E+01		-7.808934E+02		6.947645E+02
-3.958450E+02		5.972249E+02		-2.013799E+02
7.250573E+02		-3.738294E+02		-3.512280E+02
-2.438668E+01		-1.692295E+02		1.936162E+02
-4.610910E+02		-2.057819E+02		6.668729E+02
-2.116308E+02		9.745928E+02		-7.629619E+02
-3.101291E+02		5.651195E+01		2.536171E+02
-3.633935E+02		-4.445467E+02		8.079401E+02
-5.417360E+02		6.864459E+02		-1.447099E+02
-2.099312E+02		-1.763106E+02		3.862418E+02
-2.566799E+02		-2.375491E+02		4.942291E+02
-1.822345E+02		1.097521E+02		7.248240E+01
1.042081E+01		1.217386E+02		-1.321594E+02
-2.395878E+02		-2.677932E+02		5.073811E+02
4.708656E+02		-5.396497E+02		6.878411E+01
-5.448882E+02		7.460102E+02		-2.011220E+02
-3.735196E+02		3.619298E+02		1.158977E+01
-4.865194E+02		8.002852E+02		-3.137658E+02
-4.916798E+02		1.748885E+02		3.167913E+02
1.065540E+02		-1.052637E+02		-1.290317E+00
-4.781456E+02		6.195078E+02		-1.413622E+02
-2.912483E+02		2.369637E+02		5.428453E+01
-2.907869E+02		-1.693739E+02		4.601608E+02
-5.446227E+02		-2.090530E+02		7.536757E+02
-2.819499E+02		3.046080E+02		-2.265811E+01
-3.613598E+02		-9.767154E+01		4.590313E+02
3.815983E+02		-1.032615E+03		6.510171E+02
-6.031341E+02		7.463810E+02		-1.432469E+02
-4.265505E+02		4.414238E+02		-1.487332E+01
6.609350E+02		-5.622220E+02		-9.871305E+01
-2.067910E+02		-3.084197E+02		5.152106E+02
-5.752389E+02		-2.153995E+02		7.906384E+02
-4.540854E+02		2.064918E+02		2.475936E+02
8.743352E+01		-3.336429E+02		2.462094E+02
-1.900800E+01		-6.451307E+02		6.641387E+02
-5.347562E+01		4.640537E+02		-4.105781E+02
-9.481616E+01		-4.151612E+02		5.099774E+02
2.807977E+01		-7.145560E+02		6.864762E+02
-4.924365E+02		5.077881E+02		-1.535161E+01
-5.472424E+01		-5.395662E+02		5.942905E+02
-2.231775E+02		6.217559E+01		1.610019E+02
-3.381024E+02		7.484763E+02		-4.103739E+02
6.902147E+02		-3.908806E+02		-2.993341E+02
1.746245E+02		-8.635058E+02		6.888812E+02
-3.219015E+02		6.061054E+02		-2.842039E+02
6.898664E+02		-4.698672E+02		-2.199992E+02
-9.016616E+01		-3.409121E+02		4.310783E+02
7.116291E+02		-1.940033E+02		-5.176258E+02
3.346049E+00		-6.806871E+02		6.773411E+02
-4.048603E+02		7.912358E+02		-3.863755E+02
-1.113300E+02		-3.692494E+02		4.805794E+02
-2.862316E+02		5.179433E+01		2.344372E+02
6.500599E+01		-7.583959E+02		6.933899E+02
-4.035817E+02		-1.817349E+02		5.853166E+02
-5.637765E+02		-2.108274E+02		7.746040E+02
-5.477809E+02		6.176354E+02		-6.985446E+01
-5.059815E+02		4.500350E+02		5.594653E+01
-2.483989E+02		5.979258E+02		-3.495269E+02
-3.952859E+02		4.408649E+02		-4.557892E+01
7.447422E+00		-2.435164E+02		2.360689E+02
-1.991974E+02		8.056340E+01		1.186340E+02
-2.520505E+01		-1.403008E+02		1.655058E+02
-8.263753E+01		-4.399571E+02		5.225946E+02
2.299499E+02		3.857831E+02		-6.157330E+02
-5.524801E+02		7.294555E+02		-1.769754E+02
-3.793912E+02		7.794725E+02		-4.000812E+02
-3.054670E+02		-8.978156E+01		3.952486E+02
2.192630E+02		3.544965E+02		-5.737595E+02
3.641037E+01		3.500195E+02		-3.864298E+02
6.085290E+01		-1.754882E+02		1.146353E+02
-2.678126E+02		-2.001120E+02		4.679246E+02
6.524325E+01		-3.122817E+02		2.470385E+02
6.184964E+01		3.355742E+02		-3.974238E+02
-6.633117E+01		2.946887E+02		-2.283575E+02
-1.149748E+02		4.635759E+02		-3.486011E+02
-3.570910E+02		1.057123E+03		-7.000318E+02
6.637232E+02		-3.824784E+02		-2.812447E+02
4.329268E+01		-8.159889E+01		3.830620E+01
-2.052957E+02		5.737077E+02		-3.684120E+02
6.958870E+02		-4.931343E+02		-2.027528E+02
6.938214E+01		-1.609268E+02		9.154464E+01
2.159345E+00		6.960627E+01		-7.176562E+01
-3.512569E+02		6.062965E+02		-2.550396E+02
6.355877E+00		-5.342484E+02		5.278926E+02
-4.588458E+02		4.700113E+02		-1.116554E+01
6.297006E+02		1.304777E+01		-6.427484E+02
-2.807866E+02		2.713648E+02		9.421805E+00
-4.131429E+02		4.692580E+02		-5.611509E+01
-5.384700E+02		5.915625E+02		-5.309251E+01
-3.798931E+02		-1.541312E+01		3.953062E+02
-5.116272E+02		5.366150E+02		-2.498779E+01
8.266412E+02		-5.875725E+02		-2.390686E+02
6.099781E+00		1.565411E+02		-1.626409E+02
2.389984E+02		4.433587E+02		-6.823571E+02
-2.733008E+02		3.417242E+02		-6.842342E+01
-1.864209E+01		8.351388E+02		-8.164967E+02
7.333941E+02		-2.858529E+02		-4.475411E+02
-8.149991E+01		8.866094E+02		-8.051095E+02
-3.785922E+02		6.013874E+02		-2.227951E+02
-1.386929E+02		5.093544E+02		-3.706615E+02
-4.713651E+02		1.842567E+02		2.871084E+02
-4.623819E+02		8.040538E+02		-3.416718E+02
7.230423E+01		-1.436453E+02		7.134109E+01
-6.348397E+02		7.793740E+02		-1.445344E+02
-1.326193E+02		-3.633785E+02		4.959978E+02
7.686388E+02		-5.616550E+02		-2.069837E+02
6.062462E+02		-5.690051E+02		-3.724106E+01
6.482570E+02		2.830036E+01		-6.765574E+02
6.900737E+02		-5.512488E+02		-1.388248E+02
-1.659741E+02		-3.437671E+02		5.097411E+02
-1.150867E+02		9.117959E+02		-7.967091E+02
2.324888E+02		-3.816989E+02		1.492102E+02
-4.695632E+02		3.015492E+02		1.680140E+02
-4.194745E+02		5.433464E+02		-1.238719E+02
1.494094E+02		-8.416752E+02		6.922658E+02
2.964296E+02		-9.596243E+02		6.631947E+02
-2.508846E+02		3.679672E+02		-1.170826E+02
-4.806070E+02		-2.091445E+02		6.897515E+02
5.059241E+02		-5.524155E+02		4.649146E+01
-1.096121E+02		-3.810970E+02		4.907091E+02
-2.787768E+02		1.011084E+03		-7.323071E+02
-2.132610E+02		2.175261E+02		-4.265131E+00
-1.772439E+02		1.376774E+02		3.956654E+01
-3.057902E+02		-1.379916E+02		4.437818E+02
2.447356E+02		-1.662434E+02		-7.849213E+01
-4.548280E+02		2.708962E+02		1.839318E+02
-9.114088E+01		3.201821E+02		-2.290412E+02
-2.638824E+02		3.564785E+02		-9.259610E+01
-4.420334E+02		-2.017847E+02		6.438181E+02
2.722853E+02		-9.409103E+02		6.686250E+02
-2.444192E+02		9.929502E+02		-7.485310E+02
5.672012E+01		-8.860360E+01		3.188347E+01
-4.448726E+02		5.966118E+02		-1.517393E+02
6.158961E+02		9.181543E+00		-6.250777E+02
2.020288E+02		-3.755989E+02		1.735701E+02
1.897029E+02		-1.457377E+02		-4.396519E+01
-2.663010E+02		6.513794E+02		-3.850784E+02
-2.724541E+02		5.867162E+02		-3.142621E+02
-1.833892E+02		1.748455E+02		8.543679E+00
2.450837E+02		-9.199422E+02		6.748585E+02
8.031316E+02		-5.765310E+02		-2.266006E+02
6.621494E+02		-5.611441E+01		-6.060349E+02
-5.619596E+02		7.105955E+02		-1.486359E+02
7.267968E+02		-2.513638E+02		-4.754331E+02
1.998877E+02		-8.844565E+02		6.845688E+02
-1.692758E+02		5.439631E+02		-3.746873E+02
-5.286817E+02		3.613770E+02		1.673047E+02
2.350052E+02		4.167105E+02		-6.517157E+02
-4.298380E+02		8.004413E+02		-3.706032E+02
-3.665782E+01		4.224094E+02		-3.857516E+02
2.623803E+02		-4.025442E+02		1.401639E+02
2.143425E+02		-1.527410E+02		-6.160146E+01
8.449000E+00		9.106394E+01		-9.951294E+01
LINES 287 861
2		0		72
2		1		231
2		2		279
2		3		200
2		4		42
2		5		177
2		6		223
2		7		58
2		8		37
2		9		137
2		10		203
2		11		83
2		12		288
2		13		103
2		14		198
2		15		160
2		16		143
2		17		216
2		18		211
2		19		163
2		20		96
2		21		84
2		22		27
2		23		225
2		24		138
2		25		203
2		26		212
2		26		68
2		27		188
2		28		64
2		28		167
2		29		199
2		29		278
2		30		115
2		30		161
2		31		167
2		31		63
2		32		204
2		32		112
2		33		40
2		33		106
2		34		99
2		34		62
2		35		270
2		35		195
2		36		285
2		36		189
2		37		50
2		38		189
2		38		113
2		39		236
2		39		166
2		40		159
2		41		163
2		41		166
2		41		228
2		41		77
2		42		235
2		43		239
2		43		237
2		44		77
2		44		158
2		45		283
2		45		275
2		46		248
2		46		125
2		47		259
2		47		165
2		48		173
2		49		149
2		50		127
2		51		174
2		51		267
2		52		97
2		52		69
2		52		86
2		53		292
2		53		81
2		54		123
2		54		74
2		55		181
2		55		95
2		56		229
2		56		255
2		57		218
2		57		66
2		58		266
2		59		107
2		59		198
2		60		136
2		60		284
2		61		262
2		61		217
2		62		141
2		63		231
2		64		109
2		65		104
2		65		98
2		66		187
2		67		273
2		67		244
2		68		151
2		69		175
2		70		141
2		70		101
2		71		126
2		71		168
2		72		151
2		73		238
2		73		140
2		74		81
2		75		265
2		75		208
2		76		120
2		76		139
2		78		273
2		78		161
2		79		201
2		79		145
2		80		193
2		80		182
2		82		122
2		82		87
2		83		94
2		84		218
2		85		147
2		85		91
2		86		105
2		87		258
2		88		247
2		88		133
2		89		254
2		89		288
2		90		181
2		90		112
2		90		118
2		91		252
2		92		241
2		92		216
2		93		210
2		93		291
2		94		105
2		95		176
2		96		275
2		97		276
2		98		249
2		99		214
2		100		158
2		100		132
2		101		209
2		102		255
2		102		274
2		103		148
2		104		121
2		106		157
2		107		170
2		108		134
2		108		122
2		109		195
2		110		245
2		110		169
2		111		248
2		111		171
2		113		114
2		114		283
2		115		277
2		116		162
2		116		150
2		117		183
2		117		130
2		118		225
2		119		232
2		119		230
2		120		234
2		123		156
2		124		186
2		124		279
2		125		260
2		126		257
2		127		149
2		128		256
2		128		142
2		129		192
2		129		188
2		130		278
2		131		144
2		131		184
2		132		170
2		133		250
2		133		221
2		134		268
2		135		213
2		135		201
2		136		197
2		137		208
2		138		263
2		138		228
2		139		215
2		140		144
2		142		194
2		143		240
2		145		203
2		146		270
2		146		259
2		147		272
2		148		193
2		150		284
2		152		212
2		152		155
2		153		264
2		153		202
2		154		294
2		154		234
2		155		172
2		156		260
2		157		206
2		159		243
2		160		242
2		162		274
2		164		265
2		164		212
2		165		196
2		169		284
2		170		226
2		170		200
2		171		250
2		172		251
2		173		196
2		174		242
2		175		213
2		176		190
2		177		291
2		178		261
2		178		204
2		179		194
2		179		190
2		180		232
2		180		226
2		182		202
2		183		207
2		184		218
2		185		286
2		185		256
2		186		224
2		187		221
2		191		290
2		191		207
2		192		261
2		192		246
2		197		230
2		199		279
2		199		220
2		200		229
2		205		289
2		205		209
2		206		284
2		210		214
2		211		222
2		215		268
2		219		273
2		220		287
2		222		244
2		223		294
2		224		240
2		227		249
2		227		275
2		233		282
2		235		289
2		236		269
2		238		285
2		239		252
2		241		287
2		243		290
2		246		251
2		247		282
2		253		292
2		253		276
2		254		267
2		257		271
2		258		269
2		262		272
2		263		280
2		264		280
2		266		293
2		271		281
2		277		293
2		281		286
POINT_DATA 295
scalars NodeType integer
LOOKUP_TABLE default
7
7
7
7
7
7
7
7
7
7
7
7
7
7
7
7
7
7
7
7
7
7
7
7
7
7
0
0
0
0
0
0
0
0
0
0
0
0
0
0
0
0
0
0
0
0
0
0
8
8
0
0
0
0
0
0
0
0
0
0
0
0
0
0
0
0
0
0
0
0
0
0
0
0
0
0
0
0
0
0
0
0
0
0
0
0
0
0
0
0
0
0
0
0
0
0
0
0
0
0
0
0
0
0
0
0
0
0
0
0
0
0
0
0
0
0
0
0
0
0
0
8
0
0
0
0
0
0
0
0
0
0
0
0
0
0
0
0
0
0
0
0
0
0
0
0
0
0
0
0
0
0
0
0
0
0
0
0
0
0
0
0
0
0
0
0
0
0
8
0
0
0
0
0
0
0
0
0
0
0
0
0
0
0
0
0
0
0
0
0
0
0
0
0
0
0
0
0
0
0
0
0
0
0
0
0
0
0
0
0
0
0
0
0
0
0
0
8
0
9
0
0
0
9
0
0
0
0
0
0
0
0
0
8
0
0
0
8
0
0
0
0
0
0
0
8
0
0
0
0
0
0
0
0
0
0
0
0
0
0
0
0
0
0
0
0
0
0
0
0
0
0
0
0
0
0
0
0
0
0
0
0
0
0
0
0
0
0
0
0
0
0
0
0
0
CELL_DATA 287
SCALARS SlipSystem integer
LOOKUP_TABLE default
3
3
3
3
1
1
1
1
2
2
2
2
2
2
2
2
1
1
3
3
2
2
2
2
1
1
3
3
2
3
3
3
3
1
1
3
3
3
3
3
3
1
1
3
3
1
1
2
1
1
3
3
3
3
3
3
3
1
1
1
3
3
1
1
1
1
3
3
3
2
2
2
2
1
3
2
1
1
1
1
1
1
1
1
3
3
1
2
2
3
3
1
1
1
3
3
3
3
3
3
3
3
3
1
1
1
1
3
1
1
1
2
2
3
3
1
1
3
3
2
2
3
3
2
2
1
1
2
3
2
2
2
2
1
3
2
1
1
1
1
1
2
1
2
1
3
1
3
3
1
1
1
2
3
3
2
3
3
3
1
1
1
1
1
1
1
1
1
3
3
2
3
3
3
1
1
1
1
1
2
1
1
2
2
3
1
1
3
1
3
3
3
3
3
2
2
3
3
1
1
1
3
3
3
1
2
1
1
1
2
2
3
3
1
1
3
3
2
1
2
2
3
1
3
2
1
1
3
2
3
1
1
3
3
1
1
3
3
2
3
1
1
1
1
3
3
3
3
1
3
2
1
1
1
1
3
1
3
3
13
1
3
3
1
3
3
2
1
3
1
1
1
3
1
2
1
1
2
1
3
1
2
2
1
1
1
1
