# vtk DataFile Version 1.0
dislocation microstructure
ASCII
DATASET POLYDATA
POINTS 296 float
-1.407136E+02		-2.213016E+02		3.620151E+02
-4.069171E+02		1.959506E+01		3.873221E+02
-2.678171E+02		5.735064E+02		-3.056893E+02
-3.585793E+02		4.159045E+02		-5.732522E+01
2.435975E+02		5.088909E+02		-7.524885E+02
-3.645297E+01		4.790810E+02		-4.426281E+02
1.137360E+01		4.804267E+01		-5.941627E+01
2.977420E+02		-2.208350E+02		-7.690702E+01
-3.705953E+02		-3.364613E+02		7.070566E+02
-2.633774E+02		-5.962946E+01		3.230069E+02
-5.059046E+01		-1.177741E+02		1.683646E+02
-3.709113E+00		-3.770962E+02		3.808053E+02
-5.645235E+02		3.793574E+02		1.851661E+02
-3.703694E+02		9.044315E+01		2.799262E+02
-5.304416E+02		4.354699E+02		9.497178E+01
-5.136564E+02		1.737037E+02		3.399526E+02
-4.002894E+02		6.227393E+02		-2.224499E+02
-1.296146E+02		4.379697E+02		-3.083551E+02
3.132033E+01		-1.863970E+02		1.550767E+02
-2.594066E+02		2.052232E+02		5.418340E+01
5.559540E+02		2.224913E+01		-5.782031E+02
6.021915E+02		-3.324134E+02		-2.697781E+02
-9.943729E+01		-2.899623E+02		3.893996E+02
3.188077E+01		-5.505567E+02		5.186760E+02
-2.457631E+02		2.346175E+02		1.114560E+01
-1.949524E+01		-1.452330E+02		1.647282E+02
-2.510335E+02		-1.982511E+02		4.492846E+02
-9.003739E+01		-3.169284E+02		4.069658E+02
-3.694132E+02		-1.210752E+02		4.904885E+02
-2.575696E+02		6.182564E+02		-3.606868E+02
1.328914E+02		-1.364088E+02		3.517426E+00
-3.655510E+02		-6.827734E+01		4.338283E+02
-5.343236E+01		-4.804702E+02		5.339026E+02
-5.213129E+02		7.729726E+02		-2.516597E+02
1.117644E+02		3.285971E+02		-4.403615E+02
-4.263246E+02		-1.870292E+02		6.133538E+02
7.019392E+02		-2.176151E+02		-4.843242E+02
-3.460243E+02		-3.634505E+02		7.094748E+02
6.812979E+02		-1.502712E+02		-5.310267E+02
-2.798369E+02		3.255257E+02		-4.568883E+01
-5.054897E+02		7.863428E+02		-2.808531E+02
-2.952554E+02		2.740485E+02		2.120692E+01
2.353722E+02		4.738284E+02		-7.092006E+02
-5.574990E+01		8.496046E+02		-7.938547E+02
-3.453732E+02		3.332075E+02		1.216567E+01
6.259954E+02		-1.390218E+01		-6.120932E+02
5.663387E+02		-5.498156E+02		-1.652304E+01
-5.252230E+02		-2.000716E+02		7.252945E+02
-6.048353E+02		-2.116613E+02		8.164967E+02
-3.718778E+02		-4.446188E+02		8.164967E+02
-3.374904E+02		-3.972023E+02		7.346927E+02
-4.521681E+02		2.426936E+02		2.094746E+02
1.419334E+02		-3.575174E+02		2.155841E+02
3.132605E+02		-4.278173E+02		1.145568E+02
4.130676E+02		-4.973653E+02		8.429760E+01
-3.288525E+01		-5.862707E+02		6.191560E+02
-4.067334E+02		5.038751E+02		-9.714171E+01
6.655612E+02		-4.034621E+02		-2.620991E+02
2.711204E+02		-1.902725E+02		-8.084785E+01
-4.700980E+02		4.475872E+02		2.251074E+01
-5.549253E+02		6.777308E+02		-1.228054E+02
-3.267727E+02		1.016768E+03		-6.899952E+02
1.359807E+02		3.259708E+02		-4.619515E+02
-3.705867E+02		-4.336209E+01		4.139488E+02
-3.840895E+02		-1.520751E+02		5.361646E+02
6.654005E+02		6.187987E+01		-7.272803E+02
6.744794E+02		-4.467608E+02		-2.277186E+02
5.614784E+01		7.554205E+02		-8.115684E+02
-2.310516E+02		-1.847840E+02		4.158356E+02
1.172229E+02		-3.519786E+02		2.347557E+02
1.789410E+02		3.381285E+02		-5.170695E+02
3.769128E+02		-1.006092E+03		6.291789E+02
-1.725480E+02		-1.910696E+02		3.636176E+02
7.198754E+02		-3.142017E+02		-4.056737E+02
3.861228E+02		-4.813499E+02		9.522701E+01
-3.071587E+02		-1.115936E+02		4.187523E+02
-2.066163E+01		2.217013E+02		-2.010397E+02
-3.246863E+02		3.002560E+02		2.443028E+01
7.155497E+02		-5.299489E+02		-1.856008E+02
-1.115236E+01		-2.033607E+02		2.145131E+02
-2.539184E+02		5.603770E+01		1.978807E+02
3.584408E+02		-4.628677E+02		1.044270E+02
1.169102E+02		-3.547624E+02		2.378522E+02
2.128231E+01		-3.911804E+02		3.698981E+02
6.240585E+02		-3.534985E+02		-2.705600E+02
-1.833287E+02		9.419983E+02		-7.586696E+02
1.035998E+02		-3.801971E+02		2.765973E+02
-2.306309E+02		3.751236E+02		-1.444927E+02
7.407431E+02		-5.407904E+02		-1.999527E+02
-4.944776E+02		3.305423E+02		1.639354E+02
-3.125417E+01		-5.267914E+02		5.580455E+02
-1.534395E+02		9.227765E+02		-7.693370E+02
2.072439E+02		-3.488602E+02		1.416163E+02
-4.599733E-02		3.889273E+02		-3.888813E+02
5.283912E+01		-3.977888E+02		3.449497E+02
-2.073137E+01		-6.156646E+02		6.363959E+02
5.792183E+02		1.733113E+01		-5.965494E+02
1.654913E+02		-3.605260E+02		1.950347E+02
6.530263E+02		4.836477E+01		-7.013911E+02
8.577535E+01		3.350887E+02		-4.208641E+02
-3.790865E+02		3.876682E+02		-8.581731E+00
1.921729E+02		3.514664E+02		-5.436393E+02
-3.913903E+02		5.569229E+02		-1.655325E+02
-3.349357E+02		6.648870E+01		2.684470E+02
6.862397E+02		8.652905E+01		-7.727688E+02
8.085913E+01		-3.941849E+02		3.133258E+02
-5.322195E+02		7.584684E+02		-2.262489E+02
-4.416318E+02		4.396219E+02		2.009863E+00
-1.535211E+02		3.598200E+02		-2.062989E+02
6.651956E+02		-3.812858E+02		-2.839099E+02
-6.107086E+02		7.775716E+02		-1.668630E+02
6.235719E+02		-5.493687E+02		-7.420320E+01
-4.083478E+01		-5.075027E+02		5.483375E+02
6.703078E+02		-1.168858E+02		-5.534220E+02
6.618926E+02		-9.242075E+01		-5.694719E+02
1.638549E+02		-1.594823E+02		-4.372658E+00
-5.107362E+02		6.616676E+02		-1.509315E+02
-3.130252E+02		7.170360E+02		-4.040108E+02
-3.720834E+00		7.249763E+01		-6.877680E+01
-5.220824E+02		5.651382E+02		-4.305580E+01
-9.701232E+00		1.973676E+02		-1.876664E+02
6.986771E+02		1.077037E+02		-8.063808E+02
-1.869731E+02		3.721813E+02		-1.852082E+02
4.409832E+02		-5.118806E+02		7.089737E+01
-2.813549E+02		5.877068E+02		-3.063518E+02
5.341464E+02		-5.446620E+02		1.051562E+01
3.448219E+02		-9.784099E+02		6.335880E+02
-3.483112E+02		-4.270676E+02		7.753788E+02
1.159244E+02		-7.937805E+02		6.778561E+02
2.372926E+00		6.949435E+01		-7.186727E+01
-2.912116E+02		6.878782E+02		-3.966666E+02
7.027433E+02		-3.768058E+02		-3.259375E+02
-3.991006E+02		4.107163E+02		-1.161568E+01
6.965353E+02		-5.210633E+02		-1.754720E+02
-1.193307E+02		3.390131E+02		-2.196824E+02
3.518475E+01		-2.739160E+02		2.387313E+02
-5.495990E+02		6.478617E+02		-9.826272E+01
-2.943302E+02		-7.462969E+01		3.689599E+02
-2.459550E+02		2.348729E+02		1.108208E+01
-3.872968E+01		2.531630E+02		-2.144333E+02
7.180252E+02		-3.458616E+02		-3.721636E+02
1.590958E+02		3.294929E+02		-4.885887E+02
-2.675713E+02		-1.946485E+02		4.622198E+02
-3.790781E+02		5.711170E+02		-1.920389E+02
-2.228283E+01		-1.699708E+02		1.922536E+02
3.132823E+01		7.744885E+02		-8.058167E+02
-2.131966E+02		9.597937E+02		-7.465970E+02
-3.108463E+02		5.918519E+01		2.516611E+02
-3.659857E+02		-4.418556E+02		8.078413E+02
-5.337578E+02		6.905850E+02		-1.568272E+02
-2.079871E+02		-1.813808E+02		3.893679E+02
-2.460380E+02		-2.384749E+02		4.845129E+02
-1.876294E+02		1.137474E+02		7.388201E+01
-4.126261E+02		5.975795E+02		-1.849534E+02
6.431444E+00		1.236503E+02		-1.300817E+02
-2.312716E+02		-2.650635E+02		4.963350E+02
4.689503E+02		-5.243247E+02		5.537446E+01
-5.406429E+02		7.425558E+02		-2.019129E+02
-3.638828E+02		3.642184E+02		-3.355484E-01
-4.835075E+02		7.959213E+02		-3.124138E+02
-4.921835E+02		1.756268E+02		3.165567E+02
1.070088E+02		-1.194606E+02		1.245183E+01
-4.741377E+02		6.267555E+02		-1.526178E+02
-2.900328E+02		2.365049E+02		5.352783E+01
-2.871381E+02		-1.687331E+02		4.558712E+02
-5.500447E+02		-1.977036E+02		7.477483E+02
-2.826163E+02		3.054143E+02		-2.279797E+01
-3.649559E+02		-9.570705E+01		4.606630E+02
3.928580E+02		-1.021356E+03		6.284978E+02
-5.931534E+02		7.567055E+02		-1.635521E+02
-4.179229E+02		4.366776E+02		-1.875475E+01
6.486979E+02		-5.444084E+02		-1.042896E+02
-2.008341E+02		-3.030109E+02		5.038450E+02
-5.573502E+02		7.070229E+02		-1.496727E+02
-5.896795E+02		-1.983578E+02		7.880372E+02
-4.565300E+02		2.082443E+02		2.482858E+02
9.172281E+01		-3.283684E+02		2.366456E+02
-5.958387E+00		-6.435803E+02		6.495387E+02
-4.738057E+01		4.610935E+02		-4.137129E+02
-8.659201E+01		-4.152454E+02		5.018374E+02
3.899395E+01		-7.091487E+02		6.701548E+02
-4.896321E+02		5.091214E+02		-1.948927E+01
-4.061585E+01		-5.471652E+02		5.877811E+02
-2.264139E+02		6.607469E+01		1.603392E+02
-3.400937E+02		7.453176E+02		-4.052239E+02
1.812697E+02		-8.522225E+02		6.709528E+02
-3.167418E+02		5.935779E+02		-2.768362E+02
6.798213E+02		-4.672196E+02		-2.126017E+02
-9.355236E+01		-3.380754E+02		4.316278E+02
6.938810E+02		-1.898848E+02		-5.039962E+02
1.552343E+01		-6.773278E+02		6.618044E+02
-1.109148E+02		-3.605786E+02		4.714933E+02
-2.874851E+02		5.435803E+01		2.331270E+02
7.483919E+01		-7.514382E+02		6.765990E+02
-4.084714E+02		-1.764468E+02		5.849182E+02
7.290272E+01		7.435939E+02		-8.164967E+02
-5.723143E+02		-1.961652E+02		7.684795E+02
-5.414227E+02		6.161442E+02		-7.472150E+01
-5.053445E+02		4.492777E+02		5.606686E+01
-2.499737E+02		5.884757E+02		-3.385019E+02
-3.892700E+02		4.317811E+02		-4.251108E+01
1.107679E+01		-2.427667E+02		2.316899E+02
-2.036073E+02		8.467824E+01		1.189291E+02
-2.385531E+01		-1.414538E+02		1.653091E+02
-7.356347E+01		-4.399549E+02		5.135183E+02
2.126983E+02		3.971295E+02		-6.098278E+02
7.055673E+02		1.109293E+02		-8.164967E+02
-3.801209E+02		7.753214E+02		-3.952005E+02
-3.036896E+02		-9.105976E+01		3.947494E+02
2.032191E+02		3.669793E+02		-5.701983E+02
3.846656E+01		3.584731E+02		-3.969397E+02
6.261987E+01		-1.770259E+02		1.144060E+02
-2.575767E+02		-2.073747E+02		4.649514E+02
6.923416E+01		-3.082238E+02		2.389896E+02
-6.918195E+01		2.930510E+02		-2.238691E+02
-1.218153E+02		4.672418E+02		-3.454265E+02
-3.699782E+02		1.041785E+03		-6.718066E+02
6.553566E+02		-3.748138E+02		-2.805427E+02
4.328419E+01		-8.159924E+01		3.831505E+01
-2.076413E+02		5.642791E+02		-3.566378E+02
6.874001E+02		-4.909232E+02		-1.964769E+02
7.275491E+01		-1.634485E+02		9.069358E+01
-3.712051E+02		1.043009E+03		-6.718035E+02
-3.416636E+02		5.908024E+02		-2.491387E+02
6.780785E+00		-5.369434E+02		5.301626E+02
-4.572251E+02		4.713177E+02		-1.409259E+01
6.237835E+02		1.992180E+01		-6.437053E+02
-2.782216E+02		2.701507E+02		8.070910E+00
-4.029402E+02		4.666823E+02		-6.374210E+01
-5.328085E+02		5.907721E+02		-5.796359E+01
-3.810393E+02		-1.593126E+01		3.969705E+02
-5.076232E+02		5.371166E+02		-2.949333E+01
8.327953E+02		-5.814184E+02		-2.513769E+02
2.427251E+00		1.576872E+02		-1.601145E+02
2.186621E+02		4.582742E+02		-6.769364E+02
-2.738793E+02		3.421695E+02		-6.829025E+01
-2.514317E+01		8.235543E+02		-7.984111E+02
7.160372E+02		-2.792581E+02		-4.367791E+02
-8.687893E+01		8.746530E+02		-7.877741E+02
-3.642293E+02		5.826922E+02		-2.184628E+02
-1.451330E+02		5.068933E+02		-3.617603E+02
-4.727318E+02		1.855874E+02		2.871444E+02
-4.599692E+02		7.991508E+02		-3.391816E+02
7.756782E+01		-1.463337E+02		6.876589E+01
-6.232717E+02		7.909420E+02		-1.676703E+02
-1.330424E+02		-3.536243E+02		4.866666E+02
7.677842E+02		-5.523166E+02		-2.154676E+02
5.973250E+02		-5.512467E+02		-4.607837E+01
6.409084E+02		3.581847E+01		-6.767269E+02
6.761133E+02		-5.343714E+02		-1.417419E+02
-1.628164E+02		-3.359050E+02		4.987215E+02
-1.194938E+02		8.991672E+02		-7.796734E+02
2.343559E+02		-3.562467E+02		1.218908E+02
7.045557E+02		1.119409E+02		-8.164967E+02
-4.721729E+02		3.011069E+02		1.710660E+02
-4.023423E+02		5.319499E+02		-1.296076E+02
1.568886E+02		-8.314053E+02		6.745167E+02
3.026673E+02		-9.458646E+02		6.431973E+02
-2.505338E+02		3.675000E+02		-1.169662E+02
3.653478E+00		7.982735E+02		-8.019270E+02
-4.850347E+02		-2.010896E+02		6.861243E+02
5.023868E+02		-5.363211E+02		3.393434E+01
-1.039012E+02		-3.817060E+02		4.856072E+02
-2.788336E+02		9.943473E+02		-7.155137E+02
-2.145742E+02		2.171107E+02		-2.536532E+00
-1.830287E+02		1.404767E+02		4.255200E+01
-3.024033E+02		-1.385953E+02		4.409985E+02
2.446623E+02		-1.740852E+02		-7.057703E+01
-4.582548E+02		2.715425E+02		1.867122E+02
-9.319847E+01		3.175137E+02		-2.243153E+02
-2.640443E+02		3.566201E+02		-9.257573E+01
-4.466448E+02		-1.949077E+02		6.415525E+02
2.780195E+02		-9.273444E+02		6.493249E+02
-2.451475E+02		9.773267E+02		-7.321792E+02
7.345454E+01		-1.039463E+02		3.049172E+01
-4.456407E+02		6.080256E+02		-1.623849E+02
6.045290E+02		1.031790E+01		-6.148469E+02
1.901778E+02		-3.545366E+02		1.643588E+02
1.959726E+02		-1.658910E+02		-3.008166E+01
-2.706845E+02		6.514432E+02		-3.807587E+02
-2.696733E+02		5.813153E+02		-3.116420E+02
-1.880075E+02		1.751669E+02		1.284062E+01
2.508218E+02		-9.069287E+02		6.561068E+02
8.024895E+02		-5.673021E+02		-2.351874E+02
6.479494E+02		-5.582859E+01		-5.921208E+02
-5.548395E+02		7.174115E+02		-1.625720E+02
7.092241E+02		-2.458825E+02		-4.633416E+02
2.058079E+02		-8.722710E+02		6.664631E+02
-1.742931E+02		5.379249E+02		-3.636317E+02
-5.289546E+02		3.605942E+02		1.683604E+02
2.164294E+02		4.276769E+02		-6.441062E+02
-4.284581E+02		7.955357E+02		-3.670776E+02
-2.990528E+01		4.236482E+02		-3.937429E+02
2.701063E+02		-3.889087E+02		1.188024E+02
2.178029E+02		-1.658197E+02		-5.198319E+01
3.872099E+00		9.391595E+01		-9.778805E+01
LINES 287 861
2		0		72
2		1		230
2		2		280
2		3		200
2		4		42
2		5		178
2		6		129
2		7		58
2		8		37
2		9		137
2		10		203
2		11		83
2		12		289
2		13		103
2		14		198
2		15		160
2		16		153
2		17		215
2		18		211
2		19		163
2		20		96
2		21		84
2		22		27
2		23		224
2		24		138
2		25		203
2		26		212
2		26		68
2		27		188
2		28		64
2		28		167
2		29		199
2		29		279
2		30		115
2		30		161
2		31		167
2		31		63
2		32		204
2		32		112
2		33		40
2		33		106
2		34		99
2		34		62
2		35		271
2		35		194
2		36		286
2		36		189
2		37		50
2		38		189
2		38		113
2		39		235
2		39		166
2		40		159
2		41		163
2		41		166
2		41		227
2		41		77
2		42		234
2		43		238
2		43		236
2		44		77
2		44		158
2		45		284
2		45		276
2		46		247
2		46		125
2		47		260
2		47		165
2		48		174
2		49		148
2		50		127
2		51		175
2		51		268
2		52		97
2		52		69
2		53		293
2		53		81
2		54		123
2		54		74
2		55		182
2		55		95
2		56		228
2		56		255
2		57		217
2		57		66
2		58		267
2		59		107
2		59		198
2		60		136
2		60		173
2		61		263
2		61		216
2		62		141
2		63		230
2		64		194
2		65		104
2		65		98
2		66		187
2		67		145
2		67		195
2		68		150
2		69		82
2		69		176
2		70		141
2		70		101
2		71		126
2		71		168
2		72		150
2		73		237
2		73		140
2		74		81
2		75		266
2		75		208
2		76		120
2		76		139
2		78		133
2		78		88
2		79		201
2		79		144
2		80		192
2		80		183
2		82		86
2		83		94
2		84		217
2		85		146
2		85		91
2		86		105
2		87		122
2		87		258
2		88		246
2		89		254
2		89		289
2		90		182
2		90		224
2		90		112
2		91		251
2		92		277
2		92		252
2		93		210
2		93		292
2		94		105
2		95		177
2		96		276
2		97		277
2		98		248
2		99		210
2		100		158
2		100		132
2		101		209
2		102		255
2		102		143
2		103		147
2		104		121
2		106		157
2		107		170
2		108		134
2		108		122
2		109		131
2		109		217
2		110		244
2		110		169
2		111		247
2		111		171
2		113		114
2		114		284
2		115		278
2		116		162
2		116		149
2		117		184
2		117		130
2		118		295
2		119		231
2		119		229
2		120		233
2		121		206
2		121		253
2		123		156
2		124		186
2		124		280
2		125		261
2		126		257
2		127		148
2		128		256
2		128		193
2		130		279
2		131		140
2		132		170
2		133		249
2		133		220
2		134		269
2		135		213
2		135		201
2		136		197
2		137		208
2		138		264
2		138		227
2		139		214
2		142		212
2		142		164
2		143		239
2		144		203
2		145		259
2		146		273
2		147		192
2		149		285
2		151		212
2		151		155
2		152		265
2		152		202
2		153		275
2		154		295
2		154		233
2		155		172
2		156		261
2		157		285
2		159		242
2		160		241
2		161		274
2		162		275
2		164		266
2		165		196
2		169		285
2		170		225
2		170		200
2		171		249
2		172		250
2		173		285
2		174		196
2		175		241
2		176		213
2		177		190
2		178		292
2		179		262
2		179		204
2		180		193
2		180		190
2		181		231
2		181		225
2		183		202
2		184		207
2		185		287
2		185		256
2		186		223
2		187		220
2		188		191
2		191		262
2		191		245
2		197		229
2		199		280
2		199		219
2		200		228
2		205		290
2		205		209
2		207		291
2		211		221
2		214		269
2		215		240
2		216		222
2		218		274
2		219		288
2		221		243
2		223		239
2		226		248
2		226		276
2		232		283
2		234		290
2		235		270
2		236		259
2		237		286
2		238		251
2		240		288
2		242		291
2		243		274
2		245		250
2		246		283
2		252		293
2		254		268
2		257		272
2		258		270
2		260		271
2		263		273
2		264		281
2		265		281
2		267		294
2		272		282
2		278		294
2		282		287
POINT_DATA 296
scalars NodeType integer
LOOKUP_TABLE default
7
7
7
7
7
7
7
7
7
7
7
7
7
7
7
7
7
7
7
7
7
7
7
7
7
7
0
0
0
0
0
0
0
0
0
0
0
0
0
0
0
0
0
0
0
0
0
0
8
8
0
0
0
0
0
0
0
0
0
0
0
0
0
0
0
0
0
0
0
0
0
0
0
0
0
0
0
0
0
0
0
0
0
0
0
0
0
0
0
0
0
0
0
0
0
0
0
0
0
0
0
0
0
0
0
0
0
0
0
0
0
0
0
0
0
0
0
0
9
0
0
0
0
0
0
0
0
0
0
9
0
0
0
0
0
0
0
0
0
0
0
0
0
0
0
0
0
0
0
0
0
0
0
0
0
0
0
0
0
0
0
0
0
0
0
0
0
0
8
0
0
0
0
0
0
0
0
0
0
0
0
0
0
0
0
0
0
0
0
0
0
0
0
0
0
8
0
0
0
0
0
0
0
0
0
0
8
0
0
0
0
0
0
0
0
0
0
0
9
0
0
0
8
0
0
0
0
0
0
0
0
0
8
0
0
0
0
0
0
0
0
0
0
0
8
0
0
0
0
0
0
0
0
8
0
0
0
0
0
0
0
0
0
0
0
0
0
0
0
0
0
0
0
0
0
0
0
0
0
0
0
0
0
0
0
0
0
0
0
0
0
0
0
0
0
0
CELL_DATA 287
SCALARS SlipSystem integer
LOOKUP_TABLE default
3
3
3
3
1
1
1
1
2
2
2
2
2
2
2
2
1
1
3
3
2
2
2
2
1
1
3
3
2
3
3
3
3
1
1
3
3
3
3
3
3
1
1
3
3
1
1
2
1
1
3
3
3
3
3
3
3
1
1
1
3
3
1
1
1
1
3
3
3
2
2
2
2
1
1
1
1
1
1
1
1
1
1
3
3
1
2
2
3
3
1
1
1
3
3
3
3
3
1
1
3
2
3
1
1
1
1
3
1
1
1
2
2
3
3
2
2
3
3
2
2
2
2
2
1
1
2
3
3
2
2
2
1
2
3
1
1
1
1
1
2
1
2
1
3
1
3
3
1
1
1
2
3
3
2
3
3
1
1
1
1
1
1
1
1
1
1
1
3
3
3
3
3
3
1
2
1
1
1
1
1
2
1
1
3
1
3
1
3
3
3
3
3
2
2
3
3
2
2
1
3
1
1
2
1
1
1
2
2
1
3
3
1
1
3
3
2
1
1
2
3
1
3
2
1
1
3
3
2
3
1
1
3
3
1
1
3
3
2
3
1
1
1
3
2
3
1
3
2
1
1
1
1
3
3
3
1
1
13
1
3
1
3
3
2
1
3
1
1
1
1
3
3
1
2
1
2
1
3
3
1
2
2
1
1
1
1
