# vtk DataFile Version 1.0
dislocation microstructure
ASCII
DATASET POLYDATA
POINTS 300 float
-1.407136E+02		-2.213016E+02		3.620151E+02
-4.069171E+02		1.959506E+01		3.873221E+02
-2.678171E+02		5.735064E+02		-3.056893E+02
-3.585793E+02		4.159045E+02		-5.732522E+01
2.435975E+02		5.088909E+02		-7.524885E+02
-3.645297E+01		4.790810E+02		-4.426281E+02
1.137360E+01		4.804267E+01		-5.941627E+01
2.977420E+02		-2.208350E+02		-7.690702E+01
-3.705953E+02		-3.364613E+02		7.070566E+02
-2.633774E+02		-5.962946E+01		3.230069E+02
-5.059046E+01		-1.177741E+02		1.683646E+02
-3.709113E+00		-3.770962E+02		3.808053E+02
-5.645235E+02		3.793574E+02		1.851661E+02
-3.703694E+02		9.044315E+01		2.799262E+02
-5.304416E+02		4.354699E+02		9.497178E+01
-5.136564E+02		1.737037E+02		3.399526E+02
-4.002894E+02		6.227393E+02		-2.224499E+02
-1.296146E+02		4.379697E+02		-3.083551E+02
3.132033E+01		-1.863970E+02		1.550767E+02
-2.594066E+02		2.052232E+02		5.418340E+01
5.559540E+02		2.224913E+01		-5.782031E+02
6.021915E+02		-3.324134E+02		-2.697781E+02
-9.943729E+01		-2.899623E+02		3.893996E+02
3.188077E+01		-5.505567E+02		5.186760E+02
-2.457631E+02		2.346175E+02		1.114560E+01
-1.949524E+01		-1.452330E+02		1.647282E+02
-1.985040E+02		-2.195750E+02		4.180789E+02
1.074279E+03		-3.399346E+02		-7.343445E+02
-4.000482E+02		-9.626984E+01		4.963181E+02
-2.763960E+02		6.226017E+02		-3.462058E+02
-3.201703E+02		3.363741E+02		-1.620383E+01
-3.876525E+02		-5.852161E+01		4.461741E+02
3.062320E+01		-4.862301E+02		4.556069E+02
-4.950444E+02		7.187222E+02		-2.236778E+02
-3.490924E+02		3.609527E+02		-1.186027E+01
8.503663E+02		-5.124343E+02		-3.379320E+02
-2.830342E+02		2.883945E+02		-5.360366E+00
-3.624131E+02		-3.606974E+02		7.231106E+02
5.408886E+02		-1.284966E+02		-4.123920E+02
-8.969573E+02		1.354045E+02		7.615528E+02
-4.736787E+02		7.707784E+02		-2.970997E+02
7.955364E+02		-7.641897E+00		-7.878945E+02
2.165712E+02		5.316427E+02		-7.482139E+02
-1.049547E+02		7.656603E+02		-6.607056E+02
4.985755E+02		-3.810016E+01		-4.604754E+02
4.979337E+02		5.189603E+01		-5.498297E+02
8.615048E+02		-6.009740E+01		-8.014074E+02
-5.499589E+02		-1.345023E+02		6.844613E+02
-7.637817E+02		-4.121602E+01		8.049977E+02
-3.942000E+02		-4.222967E+02		8.164967E+02
-3.596094E+02		-3.835312E+02		7.431406E+02
-4.849306E+02		2.551983E+02		2.297323E+02
1.030674E+03		-2.910990E+02		-7.395750E+02
3.558836E+02		-3.576576E+02		1.774019E+00
4.164064E+02		-3.953269E+02		-2.107946E+01
7.454090E+01		-5.984915E+02		5.239506E+02
-2.726352E+02		4.189737E+02		-1.463386E+02
1.030059E+03		-2.289205E+02		-8.011385E+02
5.953362E+02		-3.439262E+02		-2.514100E+02
-4.649238E+02		4.296847E+02		3.523911E+01
-5.012983E+02		6.531443E+02		-1.518460E+02
-3.062992E+02		8.839270E+02		-5.776278E+02
6.972035E+01		4.289517E+02		-4.986720E+02
8.768197E+02		-5.174029E+02		-3.594168E+02
-4.188825E+02		-1.178774E+02		5.367599E+02
5.440009E+02		1.323606E+02		-6.763616E+02
5.858816E+02		-3.694073E+02		-2.164743E+02
-1.976702E+01		6.827067E+02		-6.629397E+02
1.960372E+02		5.682086E+02		-7.642458E+02
8.871614E+01		-3.058184E+02		2.171022E+02
-8.197942E+02		1.595248E+01		8.038418E+02
4.387000E+02		-8.860372E+02		4.473372E+02
-1.703136E+02		-2.082772E+02		3.785908E+02
5.853168E+02		-2.608101E+02		-3.245067E+02
7.236094E+01		5.399563E+02		-6.123173E+02
-2.869468E+02		-1.189383E+02		4.058851E+02
-4.132774E+01		2.199519E+02		-1.786242E+02
-2.895805E+02		3.347278E+02		-4.514722E+01
6.924070E+02		4.895711E+01		-7.413641E+02
6.775745E+00		-2.000226E+02		1.932468E+02
-2.723196E+02		8.178105E+01		1.905386E+02
3.829111E+02		-3.768810E+02		-6.030159E+00
8.599074E+01		-3.346772E+02		2.486864E+02
1.979808E+01		-3.912694E+02		3.714713E+02
-1.505135E-01		6.600957E+02		-6.599452E+02
-8.956932E+00		-4.081411E+02		4.170981E+02
7.764610E+01		-3.573867E+02		2.797406E+02
-2.263493E+02		3.611638E+02		-1.348145E+02
6.329544E+01		-5.903137E+02		5.270183E+02
-5.129618E+02		3.218695E+02		1.910923E+02
6.996626E+01		-5.754330E+02		5.054667E+02
-1.771279E+02		8.194425E+02		-6.423146E+02
1.007016E+02		-2.439940E+02		1.432924E+02
9.484388E+02		-1.475065E+02		-8.009323E+02
4.582958E+01		-3.866245E+02		3.407950E+02
5.529585E+02		1.914595E+02		-7.444180E+02
8.258485E+02		-3.017535E+01		-7.956732E+02
8.866807E+02		-8.335710E+01		-8.033236E+02
-6.835324E+02		-8.583411E+01		7.693665E+02
1.064141E+03		-3.049981E+02		-7.591431E+02
1.011899E+03		-2.241063E+02		-7.877928E+02
8.208287E+02		-5.065414E+02		-3.142873E+02
-2.652017E+02		4.517703E+02		-1.865687E+02
-3.367656E+02		7.586029E+01		2.609053E+02
6.658674E+02		5.799931E+01		-7.238667E+02
6.417236E+01		-3.749677E+02		3.107953E+02
-8.775470E+01		-3.426641E+02		4.304188E+02
-3.919124E+02		3.919403E+02		-2.792609E-02
-1.550812E+02		3.311804E+02		-1.760992E+02
-7.763587E+02		-4.013797E+01		8.164967E+02
6.097793E+01		-5.469212E+02		4.859433E+02
-8.700124E+02		8.746042E+01		7.825520E+02
4.884743E+01		-5.197218E+02		4.708744E+02
5.251100E+02		-9.450976E+01		-4.306002E+02
5.110516E+02		-6.513486E+01		-4.459168E+02
8.896847E+01		-1.966573E+02		1.076888E+02
-4.725668E+02		6.818026E+02		-2.092358E+02
8.534657E+01		-1.854890E+02		1.001424E+02
-2.944004E+01		8.067427E+01		-5.123423E+01
-4.868476E+02		5.600940E+02		-7.324640E+01
-3.140495E+01		2.010065E+02		-1.696015E+02
-2.750118E+02		3.976878E+02		-1.226760E+02
-1.808062E+02		3.444047E+02		-1.635985E+02
5.495152E+02		2.347089E+02		-7.842241E+02
1.052799E+03		-2.613627E+02		-7.914365E+02
4.866464E+02		-4.154301E+02		-7.121628E+01
3.773661E+02		-8.521313E+02		4.747652E+02
-3.717103E+02		-4.068759E+02		7.785862E+02
1.763797E+02		-7.196675E+02		5.432878E+02
3.347551E+00		6.897745E+01		-7.232500E+01
-3.106826E+02		6.817022E+02		-3.710196E+02
5.919882E+02		-3.010315E+02		-2.909567E+02
2.907052E+02		-2.874399E+02		-3.265313E+00
6.309252E+02		-4.126527E+02		-2.182725E+02
-1.289150E+02		3.147302E+02		-1.858153E+02
4.736746E+02		-9.096232E+02		4.359486E+02
-5.006182E+02		6.292919E+02		-1.286738E+02
-2.858609E+02		-8.229763E+01		3.681585E+02
-4.778538E+02		8.812167E+02		-4.033629E+02
-5.832045E+01		2.461232E+02		-1.878027E+02
-7.221344E+02		-6.500416E+01		7.871385E+02
-6.457728E+02		-1.032943E+02		7.490671E+02
-2.373949E+02		-1.919704E+02		4.293653E+02
-9.210463E+02		1.869387E+02		7.341076E+02
-9.315716E+02		2.135132E+02		7.180585E+02
-9.522650E+00		-1.731302E+02		1.826528E+02
-3.955556E+01		7.052433E+02		-6.656878E+02
-2.226151E+02		8.466524E+02		-6.240373E+02
7.441623E+01		-1.065307E+02		3.211445E+01
-3.873875E+02		-4.190498E+02		8.064373E+02
-4.935370E+02		8.591354E+02		-3.655983E+02
1.040026E+03		-3.251349E+02		-7.148907E+02
5.605852E+02		4.944163E+01		-6.100268E+02
-2.325692E+02		1.437110E+02		8.885812E+01
-4.272198E+02		6.329448E+02		-2.057251E+02
-1.263487E+01		1.327539E+02		-1.201190E+02
-1.814750E+02		-2.532981E+02		4.347731E+02
4.496837E+02		-4.081624E+02		-4.152130E+01
7.115444E+02		-4.682181E+02		-2.433262E+02
5.502595E+02		1.603828E+02		-7.106423E+02
-2.723354E+02		3.710383E+02		-9.870287E+01
-4.980836E+02		1.827727E+02		3.153109E+02
1.056573E+03		-3.576411E+02		-6.989314E+02
-4.548802E+02		6.577893E+02		-2.029092E+02
5.450178E+01		-1.907381E+02		1.362363E+02
-2.648061E+02		-1.620847E+02		4.268908E+02
7.546433E+01		-2.581296E+02		1.826653E+02
-9.097052E+02		1.614619E+02		7.482433E+02
-3.921144E+02		-7.866799E+01		4.707824E+02
4.899905E+02		-9.242232E+02		4.342328E+02
6.264260E+02		6.600402E+01		-6.924300E+02
-4.173115E+02		4.466562E+02		-2.934465E+01
5.480323E+02		-4.044131E+02		-1.436192E+02
-9.630922E+02		3.523630E+02		6.107293E+02
-4.781609E+02		7.514238E+02		-2.732629E+02
-6.201462E+02		-1.134196E+02		7.335658E+02
-4.814038E+02		2.234848E+02		2.579189E+02
2.760756E+02		-2.588304E+02		-1.724518E+01
9.069034E+01		-6.243716E+02		5.336813E+02
9.117016E+02		-1.081466E+02		-8.035550E+02
-4.389096E+01		-3.833587E+02		4.272497E+02
1.211683E+02		-6.642292E+02		5.430610E+02
-4.670017E+02		5.136326E+02		-4.663089E+01
-4.297968E+02		9.011224E+02		-4.713256E+02
-2.534233E+02		9.539408E+01		1.580292E+02
-3.523411E+02		7.236848E+02		-3.713437E+02
-9.604968E+02		3.273174E+02		6.331793E+02
8.769258E+01		-1.328517E+02		4.515911E+01
-2.434785E+02		4.843682E+02		-2.408897E+02
-9.769554E+02		4.372583E+02		5.396972E+02
2.050448E+01		6.327208E+02		-6.532253E+02
5.563001E+02		-1.649378E+02		-3.913623E+02
1.054318E+03		-2.378217E+02		-8.164967E+02
-2.185318E+02		4.920068E+02		-2.734750E+02
-1.074994E+02		-3.122025E+02		4.197019E+02
-2.966027E+02		7.415101E+01		2.224517E+02
1.458289E+02		-6.908932E+02		5.450643E+02
-4.450773E+02		-1.326724E+02		5.777497E+02
1.982959E+02		6.182008E+02		-8.164967E+02
-5.946193E+02		-1.223435E+02		7.169628E+02
-4.975989E+02		6.039121E+02		-1.063132E+02
-4.985101E+02		4.383796E+02		6.013047E+01
-2.686602E+02		5.959134E+02		-3.272532E+02
-4.951705E+02		7.549791E+02		-2.598086E+02
3.203619E+01		-2.292390E+02		1.972028E+02
-2.397891E+02		1.150798E+02		1.247093E+02
-1.968485E+01		-1.451582E+02		1.648430E+02
5.070451E+00		-4.410546E+02		4.359841E+02
-8.385124E+02		4.023112E+01		7.982813E+02
5.354862E+02		2.810105E+02		-8.164967E+02
-3.820892E+02		7.436181E+02		-3.615289E+02
-4.903131E+02		7.084251E+02		-2.181120E+02
8.604342E+01		4.541521E+02		-5.401955E+02
3.573007E+01		4.255523E+02		-4.612824E+02
9.353785E+01		-1.921476E+02		9.860972E+01
-2.633865E+02		2.255330E+02		3.785349E+01
6.096189E+02		-3.892290E+02		-2.203899E+02
-4.308438E+02		4.145758E+02		1.626801E+01
-8.636490E+01		2.790850E+02		-1.927201E+02
-1.510962E+02		4.642646E+02		-3.131684E+02
-3.429766E+02		8.946412E+02		-5.516646E+02
5.916841E+02		-3.605269E+02		-2.311572E+02
4.321078E+01		-8.160223E+01		3.839145E+01
-2.706082E+02		2.538629E+02		1.674531E+01
-3.843817E+02		4.221113E+02		-3.772954E+01
-4.878560E+02		7.898097E+02		-3.019537E+02
-3.729191E+02		9.003537E+02		-5.274346E+02
7.993333E+01		-1.425659E+02		6.263254E+01
-2.869473E+02		3.051983E+02		-1.825097E+01
-4.448547E+02		4.784153E+02		-3.356062E+01
5.311880E+02		9.985112E+01		-6.310391E+02
1.920872E+02		5.950109E+02		-7.870981E+02
-9.658543E+02		4.004227E+02		5.654316E+02
5.700077E+01		5.736807E+02		-6.306815E+02
-3.905861E+02		-1.604249E+01		4.066286E+02
-1.053517E+01		-3.893364E+02		3.998716E+02
8.924788E+02		-5.217349E+02		-3.707439E+02
-1.753981E+01		1.634136E+02		-1.458738E+02
8.093384E+01		5.139627E+02		-5.948965E+02
9.541806E+01		-1.576092E+02		6.219117E+01
-8.200592E+01		7.464726E+02		-6.644667E+02
5.795261E+02		-2.362046E+02		-3.433214E+02
4.070679E+02		-8.681145E+02		4.610466E+02
-9.408320E+02		2.402221E+02		7.006099E+02
-1.279779E+02		7.845978E+02		-6.566199E+02
-2.560396E+02		4.691990E+02		-2.131594E+02
5.137497E+02		7.164318E+01		-5.853929E+02
-4.872077E+02		1.976960E+02		2.895116E+02
-4.453441E+02		7.658206E+02		-3.204765E+02
-4.828938E+02		7.243138E+02		-2.414200E+02
-4.955946E+02		8.282634E+02		-3.326688E+02
-4.900474E+02		7.758577E+02		-2.858103E+02
7.599552E+02		-4.890757E+02		-2.708794E+02
5.206421E+02		-4.139848E+02		-1.066573E+02
5.918941E+02		6.510910E+01		-6.570032E+02
1.021188E+03		-2.469935E+02		-7.741940E+02
-1.481273E+02		-2.887847E+02		4.369120E+02
5.427411E+02		2.602419E+02		-8.029830E+02
-1.524128E+02		8.024736E+02		-6.500608E+02
3.091777E+02		-3.114966E+02		2.318857E+00
7.537759E+02		1.918098E+01		-7.729569E+02
-5.020379E+02		3.012506E+02		2.007873E+02
-2.789428E+02		3.645576E+02		-8.561478E+01
9.838681E+01		-2.215244E+02		1.231376E+02
2.064232E+02		-7.447056E+02		5.382824E+02
3.304300E+02		-8.266474E+02		4.962174E+02
-9.691358E+02		4.206936E+02		5.484422E+02
-5.150513E+02		-1.398153E+02		6.548667E+02
-4.570115E+02		8.939619E+02		-4.369504E+02
-2.693792E+02		8.695463E+02		-6.001670E+02
4.852906E+02		3.441105E+01		-5.197017E+02
6.718418E+02		-4.450131E+02		-2.268287E+02
-4.801346E+02		-1.401267E+02		6.202613E+02
8.227039E+01		-2.693784E+02		1.871080E+02
7.189119E+02		3.755201E+01		-7.564639E+02
-7.995127E+02		-8.219353E+00		8.077321E+02
3.873145E+01		6.055060E+02		-6.442375E+02
-2.899892E+02		6.508956E+02		-3.609064E+02
-2.375520E+02		1.850090E+02		5.254306E+01
-9.645604E+02		3.758941E+02		5.886663E+02
2.832822E+02		-7.986167E+02		5.153345E+02
7.923628E+02		-4.994190E+02		-2.929438E+02
4.860917E+02		-6.616357E+00		-4.794753E+02
-4.987848E+02		6.838515E+02		-1.850668E+02
-9.528481E+02		2.841126E+02		6.687355E+02
5.726432E+02		-2.112336E+02		-3.614096E+02
6.247481E+01		-1.084206E+02		4.594582E+01
-4.019528E+02		9.027251E+02		-5.007723E+02
2.448843E+02		-7.731726E+02		5.282884E+02
-1.884521E+02		4.866261E+02		-2.981740E+02
-5.348395E+02		3.532539E+02		1.815855E+02
4.816252E+02		2.349017E+01		-5.051154E+02
8.662618E+01		4.880546E+02		-5.746808E+02
-4.214146E+02		7.600623E+02		-3.386477E+02
-2.828250E+00		4.434065E+02		-4.405782E+02
5.699005E+02		-3.879337E+02		-1.819668E+02
3.295542E+02		-3.344241E+02		4.869898E+00
2.713793E+02		-2.299583E+02		-4.142106E+01
9.828514E+02		-1.874852E+02		-7.953662E+02
-1.410305E+01		1.074578E+02		-9.335479E+01
LINES 291 873
2		0		72
2		1		234
2		2		202
2		3		224
2		4		42
2		5		294
2		6		129
2		7		297
2		8		37
2		9		137
2		10		206
2		11		235
2		12		290
2		13		103
2		14		201
2		15		161
2		16		154
2		17		219
2		18		164
2		19		215
2		20		152
2		21		221
2		22		194
2		23		88
2		24		223
2		25		206
2		26		72
2		26		142
2		26		156
2		27		99
2		28		64
2		28		168
2		29		202
2		29		277
2		30		34
2		30		228
2		31		234
2		31		168
2		32		207
2		32		112
2		33		211
2		33		203
2		34		107
2		35		101
2		35		63
2		36		228
2		36		223
2		37		50
2		38		191
2		38		113
2		39		111
2		39		167
2		40		225
2		40		174
2		40		248
2		41		260
2		41		96
2		42		68
2		43		244
2		43		240
2		44		282
2		44		114
2		45		270
2		45		246
2		46		96
2		46		97
2		47		199
2		47		267
2		48		140
2		48		109
2		48		275
2		49		149
2		50		127
2		51		261
2		51		176
2		52		151
2		52		255
2		53		296
2		53		81
2		54		157
2		54		81
2		55		88
2		55		178
2		55		90
2		56		102
2		56		121
2		57		124
2		57		100
2		58		131
2		58		66
2		59		217
2		59		201
2		60		283
2		60		136
2		61		269
2		61		220
2		62		212
2		62		213
2		63		236
2		64		197
2		65		230
2		65		159
2		66		295
2		67		146
2		67		84
2		68		231
2		69		273
2		69		82
2		70		275
2		70		208
2		71		135
2		71		242
2		73		131
2		73		241
2		74		233
2		74		238
2		75		165
2		75		137
2		76		120
2		76		139
2		77		228
2		77		262
2		78		274
2		78		104
2		79		204
2		79		145
2		80		195
2		80		184
2		82		86
2		83		235
2		83		94
2		84		190
2		85		235
2		85		207
2		86		105
2		87		160
2		87		122
2		89		261
2		89		290
2		90		110
2		91		147
2		91		258
2		92		166
2		92		263
2		93		179
2		93		298
2		94		105
2		95		159
2		95		123
2		97		179
2		98		140
2		98		141
2		99		124
2		100		298
2		100		255
2		100		192
2		101		281
2		102		245
2		103		195
2		104		170
2		106		194
2		106		180
2		107		217
2		108		134
2		108		122
2		110		112
2		111		208
2		113		114
2		115		117
2		115		164
2		115		214
2		115		263
2		116		211
2		116		163
2		117		227
2		118		299
2		119		200
2		119		182
2		120		237
2		121		160
2		123		257
2		125		253
2		125		157
2		126		242
2		126		265
2		127		149
2		128		264
2		128		196
2		130		277
2		130		185
2		132		177
2		132		259
2		133		216
2		133		271
2		134		218
2		135		169
2		136		200
2		138		268
2		138		150
2		139		218
2		141		175
2		142		165
2		143		167
2		143		144
2		144		243
2		145		206
2		146		240
2		147		269
2		148		222
2		148		187
2		150		250
2		151		162
2		152		254
2		153		278
2		153		205
2		154		163
2		155		299
2		155		237
2		156		256
2		158		271
2		158		252
2		160		262
2		161		247
2		166		273
2		166		204
2		170		254
2		171		224
2		171		229
2		172		295
2		172		253
2		173		279
2		173		186
2		174		249
2		175		199
2		176		247
2		177		297
2		178		181
2		180		235
2		181		196
2		182		229
2		183		287
2		183		268
2		184		205
2		185		210
2		186		284
2		187		239
2		188		245
2		188		193
2		189		266
2		190		276
2		191		285
2		193		289
2		194		256
2		197		272
2		198		231
2		203		251
2		209		257
2		210		293
2		211		249
2		211		283
2		212		292
2		213		294
2		214		239
2		215		278
2		215		223
2		216		221
2		219		289
2		220		226
2		222		286
2		225		250
2		225		251
2		226		287
2		227		286
2		230		246
2		232		279
2		232		266
2		233		276
2		238		292
2		241		285
2		243		284
2		244		258
2		248		293
2		252		281
2		259		296
2		260		274
2		264		288
2		265		280
2		267		272
2		270		291
2		280		288
2		282		291
POINT_DATA 300
scalars NodeType integer
LOOKUP_TABLE default
7
7
7
7
7
7
7
7
7
7
7
7
7
7
7
7
7
7
7
7
7
7
7
7
7
7
0
8
0
0
0
0
0
0
0
0
0
0
0
0
0
0
0
0
0
0
0
0
0
8
0
0
0
0
0
0
0
0
0
0
0
0
0
0
0
0
0
0
0
0
0
0
0
0
0
0
0
0
0
0
0
0
0
0
0
0
0
0
0
0
0
0
0
0
0
0
0
0
0
0
0
0
0
0
0
0
0
0
0
8
0
0
0
0
0
0
0
0
9
0
0
0
0
0
0
0
0
0
0
9
0
0
0
0
0
0
0
0
0
0
0
0
0
0
0
0
0
0
0
0
0
0
0
0
0
0
0
0
0
0
0
0
8
0
0
0
0
0
0
8
0
0
0
0
0
0
0
0
0
0
0
0
0
0
0
0
0
0
0
8
0
0
8
0
0
0
0
0
8
0
0
0
0
0
0
0
0
0
0
8
0
0
0
0
0
0
0
0
0
0
0
0
9
0
0
0
0
0
0
0
0
0
0
0
0
0
8
0
0
0
0
0
0
0
0
0
0
0
0
0
0
0
0
0
0
0
0
0
0
0
0
0
0
0
0
0
0
0
0
0
0
0
0
0
0
0
0
0
0
0
0
0
0
0
0
0
0
0
0
0
0
0
0
0
0
0
0
0
0
0
CELL_DATA 291
SCALARS SlipSystem integer
LOOKUP_TABLE default
3
3
3
3
1
1
1
1
2
2
2
2
2
2
2
2
1
1
3
3
2
2
2
2
1
1
3
2
1
2
3
3
3
3
2
2
3
3
3
3
3
3
2
2
2
3
3
2
1
1
1
1
2
1
3
2
2
1
1
1
1
1
1
1
2
2
3
3
3
2
1
2
2
2
2
1
1
1
1
1
1
2
1
3
1
1
2
2
1
1
2
2
3
3
1
1
1
1
2
3
1
1
1
1
1
1
2
2
1
1
1
1
1
1
1
1
2
2
3
3
13
13
2
2
3
3
2
2
2
2
2
1
3
3
2
3
3
2
2
3
1
1
1
1
2
2
2
1
1
2
3
3
2
2
1
1
2
1
2
2
3
3
2
3
3
3
1
1
1
3
3
1
1
1
1
3
3
3
3
1
1
1
1
1
1
2
1
1
3
3
1
1
2
2
3
1
3
1
1
3
3
2
1
1
1
3
1
1
3
3
1
1
2
2
2
1
3
3
1
2
2
13
2
2
3
2
3
3
1
1
1
1
1
3
2
1
1
3
1
3
1
1
2
3
1
3
1
1
1
1
1
1
1
3
1
3
1
3
1
3
1
1
3
2
13
2
1
1
1
1
3
1
1
1
1
1
1
1
1
1
1
3
2
1
2
1
1
3
1
1
1
