# vtk DataFile Version 1.0
dislocation microstructure
ASCII
DATASET POLYDATA
POINTS 267 float
-1.407136E+02		-2.213016E+02		3.620151E+02
-4.069171E+02		1.959506E+01		3.873221E+02
-2.678171E+02		5.735064E+02		-3.056893E+02
-3.585793E+02		4.159045E+02		-5.732522E+01
2.435975E+02		5.088909E+02		-7.524885E+02
-3.645297E+01		4.790810E+02		-4.426281E+02
1.137360E+01		4.804267E+01		-5.941627E+01
2.977420E+02		-2.208350E+02		-7.690702E+01
-3.705953E+02		-3.364613E+02		7.070566E+02
-2.633774E+02		-5.962946E+01		3.230069E+02
-5.059046E+01		-1.177741E+02		1.683646E+02
-3.709113E+00		-3.770962E+02		3.808053E+02
-5.645235E+02		3.793574E+02		1.851661E+02
-3.703694E+02		9.044315E+01		2.799262E+02
-5.304416E+02		4.354699E+02		9.497178E+01
-5.136564E+02		1.737037E+02		3.399526E+02
-4.002894E+02		6.227393E+02		-2.224499E+02
-1.296146E+02		4.379697E+02		-3.083551E+02
3.132033E+01		-1.863970E+02		1.550767E+02
-2.594066E+02		2.052232E+02		5.418340E+01
5.559540E+02		2.224913E+01		-5.782031E+02
6.021915E+02		-3.324134E+02		-2.697781E+02
-9.943729E+01		-2.899623E+02		3.893996E+02
3.188077E+01		-5.505567E+02		5.186760E+02
-2.457631E+02		2.346175E+02		1.114560E+01
-1.949524E+01		-1.452330E+02		1.647282E+02
-8.453360E+01		-1.624348E+02		2.469684E+02
6.316057E+02		2.750396E+01		-6.591097E+02
-4.692759E+02		2.625506E+00		4.666504E+02
-1.063469E+02		-2.125143E+02		3.188611E+02
-1.709326E+02		1.543316E+02		1.660104E+01
-4.453097E+02		-1.656503E+00		4.469662E+02
1.351012E+02		-3.684872E+02		2.333861E+02
-3.709907E+02		6.300759E+02		-2.590852E+02
-3.818795E+02		2.315456E+02		1.503339E+02
-2.863967E+02		5.853363E+02		-2.989396E+02
-4.044204E+02		2.432286E+02		1.611918E+02
7.563540E+02		-5.159811E+01		-7.047559E+02
-5.204705E+02		4.869064E+02		3.356413E+01
-5.780016E+02		1.185975E+02		4.594041E+02
-1.192056E+02		-1.519041E+02		2.711097E+02
6.087872E+02		-5.647736E+01		-5.523098E+02
-3.807087E+01		-1.218058E+02		1.598767E+02
6.671021E+02		-2.251766E+02		-4.419255E+02
2.338068E+02		-1.227114E+02		-1.110954E+02
6.173932E+02		-8.263673E+01		-5.347565E+02
6.690588E+02		1.078303E+02		-7.768890E+02
-5.669661E+02		-2.826207E+01		5.952282E+02
-5.710100E+02		-1.569764E+02		7.279864E+02
-4.827079E+02		-2.930610E+02		7.757689E+02
-4.089777E+02		-3.328375E+02		7.418152E+02
-5.170750E+02		2.081344E+02		3.089406E+02
6.542505E+02		-1.837550E+02		-4.704955E+02
6.344401E+02		-1.283479E+02		-5.060922E+02
-2.976099E+02		9.818801E+02		-6.842702E+02
-5.185696E+02		-2.585170E+02		7.770867E+02
8.327804E+02		-3.078805E+02		-5.248999E+02
2.216740E+02		-4.408444E+02		2.191704E+02
2.108681E+02		-5.057290E+02		2.948609E+02
-5.306248E+02		3.690955E+02		1.615294E+02
-3.907470E+02		5.802522E+02		-1.895051E+02
1.494458E+01		4.095244E+02		-4.244690E+02
-2.936150E+01		4.557374E+02		-4.263759E+02
-5.475313E+02		5.269577E+02		2.057359E+01
-4.808917E+02		4.262942E+02		5.459751E+01
1.445173E+02		4.320609E+02		-5.765781E+02
-5.020303E+02		4.593861E+02		4.264419E+01
8.390277E+02		-2.382736E+02		-6.007541E+02
-2.650504E+02		9.606447E+02		-6.955944E+02
-4.516177E+02		3.779649E+02		7.365285E+01
6.539963E+01		6.616671E+02		-7.270668E+02
3.842542E+02		-4.683145E+02		8.406034E+01
-1.741726E+02		-1.307159E+02		3.048885E+02
-2.850846E+02		6.091939E+02		-3.241093E+02
-1.507634E+02		5.012112E+02		-3.504478E+02
6.688145E+02		-4.714118E+02		-1.974027E+02
-9.774487E+01		1.953095E+02		-9.756466E+01
-2.071722E+02		2.482988E+02		-4.112661E+01
6.803673E+02		-2.935168E+02		-3.868505E+02
8.388649E+02		-2.745681E+02		-5.642968E+02
7.856678E+02		-9.007076E+01		-6.955971E+02
6.499162E+02		4.008230E+01		-6.899985E+02
7.722292E+02		-3.858311E+02		-3.863981E+02
6.902071E+02		-4.024705E+02		-2.877366E+02
-1.743480E+02		5.263668E+02		-3.520187E+02
-1.941456E+01		-3.405335E+02		3.599481E+02
-5.988899E+01		-3.067031E+02		3.665921E+02
1.423775E+02		-5.706377E+02		4.282602E+02
7.618751E+01		-5.712268E+02		4.950393E+02
-4.877451E+02		2.434197E+02		2.443255E+02
2.658546E+02		-4.276924E+02		1.618378E+02
-2.200773E+02		5.598959E+02		-3.398186E+02
1.335566E+02		5.514851E+02		-6.850417E+02
4.344847E+01		-8.159220E+01		3.814373E+01
-9.849928E+00		4.308834E+02		-4.210335E+02
1.468360E+02		4.536691E+02		-6.005051E+02
-4.567287E+02		2.650120E+02		1.917168E+02
-4.490312E+02		2.981602E+02		1.508710E+02
-3.897530E+02		2.572605E+02		1.324925E+02
-4.356130E+02		3.497665E+02		8.584659E+01
-5.069628E+02		2.251345E+02		2.818283E+02
1.743063E+02		5.198176E+02		-6.941239E+02
-4.483190E+02		2.748538E+02		1.734652E+02
-3.540017E+02		1.000969E+02		2.539047E+02
-1.038324E+02		6.149452E+01		4.233783E+01
1.192542E+02		-2.258078E+01		-9.667343E+01
-5.782844E+02		-8.081055E+01		6.590950E+02
-5.392248E+02		8.488245E+00		5.307366E+02
-5.779760E+02		-1.148599E+02		6.928360E+02
-5.473665E+02		-2.167847E+02		7.641512E+02
2.142631E+02		-4.181668E+02		2.039036E+02
-5.160847E+02		1.720327E+01		4.988815E+02
1.685489E+02		-3.887016E+02		2.201526E+02
1.440388E+02		4.860479E+02		-6.300867E+02
-5.978347E+02		5.843663E+02		1.346849E+01
8.739769E+01		6.961091E+02		-7.835068E+02
-3.121686E+02		5.951215E+02		-2.829529E+02
-8.228709E+01		8.218993E+02		-7.396122E+02
-4.816791E+01		1.154057E+02		-6.723779E+01
-4.149815E+02		5.352599E+02		-1.202784E+02
-4.342526E+01		8.159322E+01		-3.816796E+01
2.092284E+02		-9.882780E+01		-1.104006E+02
-1.487600E+02		2.351266E+02		-8.636654E+01
-6.544208E+01		1.531394E+02		-8.769734E+01
8.327266E+02		-1.973824E+02		-6.353442E+02
8.202625E+02		-3.382769E+02		-4.819855E+02
3.297149E+02		-4.414784E+02		1.117636E+02
1.865300E+02		-5.437561E+02		3.572261E+02
-3.345977E+02		6.409775E+02		-3.063798E+02
3.535645E+00		6.887653E+01		-7.241217E+01
-5.744070E+02		-5.252092E+01		6.269279E+02
-5.555991E+02		-7.649576E+00		5.632487E+02
-3.518545E+02		1.020587E+03		-6.687321E+02
6.001784E+02		1.226046E+01		-6.124389E+02
7.223430E+02		-1.693066E+01		-7.054123E+02
4.223191E+02		-4.866055E+02		6.428638E+01
-1.244643E+02		8.585103E+02		-7.340460E+02
-2.414587E+02		-8.850325E+01		3.299620E+02
6.753616E+02		-3.996549E+02		-2.757067E+02
7.342642E+02		-3.995785E+02		-3.346857E+02
6.726551E+02		1.273522E+02		-8.000073E+02
9.769526E+01		7.188014E+02		-8.164967E+02
4.038111E+01		-2.945750E+02		2.541939E+02
7.381847E+00		-2.552520E+02		2.478701E+02
1.250705E+02		3.925313E+02		-5.176019E+02
-5.335559E+02		5.075399E+02		2.601609E+01
-4.933767E+02		3.467944E+02		1.465823E+02
5.666421E+01		-1.188649E+02		6.220066E+01
-4.448896E+02		-3.179940E+02		7.628836E+02
-1.361261E+02		1.083396E+02		2.778648E+01
-1.316111E+02		4.726465E+02		-3.410354E+02
1.375165E+02		5.174576E+02		-6.549740E+02
-3.521409E+02		1.815868E+02		1.705541E+02
8.001428E+02		-3.650970E+02		-4.350458E+02
7.416796E+01		3.825207E+02		-4.566886E+02
8.176581E+02		-1.502285E+02		-6.674297E+02
-5.211177E+02		4.516937E+02		6.942403E+01
-2.110113E+02		9.242386E+02		-7.132273E+02
5.023769E+02		-5.143031E+02		1.192622E+01
6.034849E+02		-3.981660E+01		-5.636683E+02
-8.043674E+00		7.484289E+02		-7.403852E+02
5.942468E+02		-1.326357E+01		-5.809833E+02
-6.988861E+02		6.932027E+02		5.683400E+00
-3.248203E+01		-1.320714E+02		1.645534E+02
-2.067591E+02		-1.136516E+02		3.204107E+02
-2.308788E+02		2.387607E+02		-7.881930E+00
-1.671593E+02		8.923753E+02		-7.252160E+02
-1.447907E+02		-1.428786E+02		2.876693E+02
5.430864E+02		-5.206043E+02		-2.248213E+01
2.195624E+02		-4.754082E+02		2.558458E+02
-3.988915E+02		4.578556E+02		-5.896416E+01
-6.656498E+02		6.580989E+02		7.550920E+00
2.402273E+02		-4.265753E+02		1.863480E+02
-3.262247E+02		1.001315E+03		-6.750901E+02
1.522698E+02		-4.820430E+01		-1.040655E+02
6.769667E+02		-2.675952E+02		-4.093715E+02
2.012112E+02		-5.246872E+02		3.234760E+02
-9.032896E+01		-1.863963E+02		2.767253E+02
-4.687721E+02		3.248923E+02		1.438798E+02
-3.415858E+02		6.041660E+02		-2.625802E+02
-4.159220E+02		5.037079E+02		-8.778596E+01
4.587399E+01		-1.756056E+02		1.297316E+02
-3.418202E+02		1.543797E+02		1.874405E+02
-2.686289E+02		5.788203E+02		-3.101914E+02
6.731496E+02		-3.486316E+02		-3.245181E+02
-3.561941E+02		6.396476E+02		-2.834536E+02
-7.615685E+01		1.258135E+01		6.357550E+01
-7.098879E+02		7.043258E+02		5.562078E+00
-6.259634E+02		6.148445E+02		1.111895E+01
2.659544E+02		-1.569942E+02		-1.089603E+02
6.763451E+02		1.401516E+02		-8.164967E+02
-3.417640E+01		-1.668738E+02		2.010502E+02
1.032590E+02		3.820319E+02		-4.852910E+02
-3.414161E+02		1.228004E+02		2.186157E+02
6.659064E+01		7.622465E+00		-7.421310E+01
-5.011003E+02		1.421727E+01		4.868830E+02
-5.375085E+02		4.812491E+01		4.893836E+02
-4.075454E+02		5.564173E+02		-1.488719E+02
-4.099112E+02		3.011962E+02		1.087150E+02
7.132475E+02		-4.025708E+02		-3.106767E+02
-2.587321E+02		5.779450E+02		-3.192129E+02
1.124876E+02		-5.752868E+02		4.627993E+02
1.669735E+02		-5.596067E+02		3.926332E+02
-8.873738E+01		3.657610E+01		5.216128E+01
1.077280E+02		-3.506354E+02		2.429074E+02
-5.682345E+02		9.407850E+01		4.741560E+02
2.151502E+02		4.981470E+02		-7.132972E+02
-2.042539E+01		-2.081285E+02		2.285539E+02
-3.766635E+02		6.196415E+02		-2.429780E+02
-5.716748E+02		5.556167E+02		1.605807E+01
-3.740106E+02		1.040203E+03		-6.661925E+02
5.413939E+01		-1.597097E+02		1.055703E+02
6.597811E+02		6.730746E+01		-7.270885E+02
-3.729493E+02		2.122126E+02		1.607367E+02
-5.696775E+01		-2.602139E+01		8.298914E+01
-1.222869E+02		2.174226E+02		-9.513568E+01
6.808102E+02		-3.191015E+02		-3.617087E+02
-3.100567E+02		6.310564E+02		-3.209997E+02
6.268296E+02		-3.451210E+02		-2.817086E+02
-4.408115E+01		-6.398463E+01		1.080658E+02
-2.375982E+02		2.268071E+02		1.079108E+01
-3.814633E+02		4.340087E+02		-5.254543E+01
-4.394472E+02		2.650290E+02		1.744182E+02
-4.456352E+01		7.861278E+02		-7.415643E+02
-3.815187E+01		-9.360523E+01		1.317571E+02
2.863920E+01		7.071214E+02		-7.357606E+02
-4.103992E+02		4.824132E+02		-7.201399E+01
6.178016E+02		-5.111884E+02		-1.066132E+02
6.646026E+02		8.645960E+01		-7.510622E+02
4.609678E+02		-5.021559E+02		4.118806E+01
6.816043E+02		1.657815E+01		-6.981824E+02
-4.199449E+02		4.990832E+00		4.149541E+02
7.610000E+01		-3.271460E+02		2.510460E+02
7.538288E+02		-3.940009E+02		-3.598279E+02
9.418931E+01		-6.503439E+00		-8.768587E+01
-5.756829E+02		2.014859E+02		3.741971E+02
5.764158E+01		-1.415260E+02		8.388441E+01
8.971135E+01		6.279816E+02		-7.176930E+02
5.824538E+02		-5.198747E+02		-6.257915E+01
3.550156E+02		-4.535288E+02		9.851322E+01
-5.872996E+02		1.430487E+02		4.442509E+02
6.466316E+02		-4.951078E+02		-1.515238E+02
4.302818E+01		3.928594E+02		-4.358876E+02
1.394772E+02		4.117279E+02		-5.512051E+02
-5.217267E+02		1.874650E+02		3.342616E+02
-4.655698E+02		4.015239E+02		6.404586E+01
-3.699740E+02		6.117143E+02		-2.417403E+02
-1.807306E+02		2.471615E+02		-6.643088E+01
-2.384840E+02		9.430461E+02		-7.045621E+02
6.556027E+02		-3.563943E+02		-2.992083E+02
2.884146E+02		-1.878994E+02		-1.005151E+02
5.821867E+02		7.651761E+00		-5.898385E+02
6.444291E+02		-1.556086E+02		-4.888205E+02
-5.434594E+02		2.007288E+02		3.427306E+02
1.818702E+02		-7.370066E+01		-1.081696E+02
8.362245E+01		6.699733E+02		-7.535958E+02
6.806357E+02		-4.412523E+02		-2.393834E+02
-5.616561E+02		-1.860987E+02		7.477548E+02
-5.070185E+01		-1.528757E+02		2.035775E+02
-2.034953E+02		1.921579E+02		1.133736E+01
-1.886340E+02		1.756899E+02		1.294410E+01
8.034391E+02		-1.200138E+02		-6.834253E+02
2.892274E+02		-4.280897E+02		1.388622E+02
3.142602E+02		-4.352665E+02		1.210064E+02
-5.898632E+02		1.768298E+02		4.130334E+02
-3.801796E+02		5.941646E+02		-2.139850E+02
-4.731471E+02		2.533923E+02		2.197548E+02
LINES 259 777
2		0		29
2		1		231
2		2		183
2		3		221
2		4		206
2		5		62
2		6		129
2		7		250
2		8		50
2		9		137
2		10		163
2		11		85
2		12		59
2		13		103
2		14		156
2		15		244
2		16		208
2		17		150
2		18		181
2		19		220
2		20		251
2		21		218
2		22		86
2		23		88
2		24		220
2		25		163
2		26		177
2		26		258
2		26		40
2		27		81
2		27		133
2		28		195
2		28		31
2		29		177
2		30		149
2		30		260
2		31		231
2		32		204
2		32		112
2		33		185
2		33		208
2		34		98
2		34		213
2		35		116
2		35		183
2		36		222
2		36		213
2		37		134
2		37		80
2		38		66
2		38		145
2		39		240
2		39		205
2		40		167
2		41		159
2		41		45
2		42		258
2		42		224
2		43		175
2		43		52
2		44		121
2		44		189
2		45		53
2		46		228
2		46		140
2		47		130
2		47		131
2		48		108
2		48		257
2		49		148
2		49		55
2		50		148
2		51		244
2		51		100
2		52		252
2		53		252
2		54		173
2		54		68
2		55		109
2		56		125
2		56		79
2		57		169
2		57		110
2		58		169
2		58		176
2		59		146
2		60		197
2		60		265
2		61		242
2		61		94
2		62		94
2		63		209
2		63		145
2		64		245
2		64		66
2		65		243
2		65		95
2		66		156
2		67		124
2		67		79
2		68		248
2		69		99
2		69		245
2		70		225
2		70		237
2		71		135
2		71		239
2		72		164
2		72		167
2		73		217
2		73		183
2		74		150
2		74		84
2		75		256
2		75		241
2		76		123
2		76		215
2		77		165
2		77		247
2		78		216
2		78		175
2		80		261
2		81		230
2		81		212
2		82		153
2		82		233
2		83		138
2		83		199
2		84		91
2		85		86
2		87		201
2		87		202
2		88		201
2		89		100
2		89		266
2		90		262
2		90		172
2		91		200
2		92		151
2		92		101
2		93		147
2		95		113
2		96		222
2		96		266
2		96		102
2		97		102
2		97		178
2		98		198
2		99		198
2		101		206
2		103		193
2		104		149
2		104		203
2		105		174
2		105		234
2		106		108
2		106		130
2		107		111
2		107		131
2		109		257
2		110		112
2		110		172
2		111		195
2		113		151
2		114		209
2		114		188
2		115		255
2		115		141
2		116		179
2		117		136
2		117		223
2		118		123
2		118		120
2		119		197
2		119		180
2		121		254
2		122		247
2		122		215
2		124		155
2		125		153
2		126		239
2		126		263
2		127		202
2		127		176
2		128		185
2		128		217
2		132		173
2		132		210
2		133		251
2		134		230
2		135		229
2		136		166
2		137		164
2		138		249
2		138		256
2		139		199
2		139		233
2		140		190
2		142		232
2		142		143
2		143		207
2		144		243
2		144		192
2		146		178
2		147		236
2		152		182
2		152		213
2		154		242
2		154		192
2		155		261
2		157		166
2		157		248
2		158		229
2		158		168
2		159		161
2		160		223
2		160		225
2		161		251
2		162		171
2		162		187
2		163		191
2		165		220
2		168		238
2		170		221
2		170		226
2		171		188
2		174		254
2		179		246
2		180		226
2		181		211
2		182		193
2		183		200
2		184		216
2		184		249
2		186		203
2		186		214
2		189		250
2		191		207
2		194		234
2		195		196
2		196		205
2		204		232
2		208		246
2		211		236
2		212		228
2		214		219
2		218		249
2		219		224
2		220		259
2		227		238
2		227		241
2		235		253
2		235		264
2		237		255
2		240		264
2		244		253
2		246		265
2		259		260
2		262		263
POINT_DATA 267
scalars NodeType integer
LOOKUP_TABLE default
7
7
7
7
7
7
7
7
7
7
7
7
7
7
7
7
7
7
7
7
7
7
7
7
7
7
0
0
0
0
0
0
0
0
0
0
0
0
0
0
0
0
0
0
0
0
0
0
0
0
0
0
0
0
0
0
0
0
0
0
0
0
0
0
0
0
0
0
0
0
0
0
0
0
0
0
0
0
0
0
0
0
0
0
0
0
0
0
0
0
0
0
0
9
0
0
0
0
0
0
0
0
0
0
0
0
0
0
0
0
0
0
0
0
0
0
0
0
0
0
9
0
0
0
0
0
0
0
0
9
0
0
0
0
0
0
0
0
0
0
0
8
0
0
0
0
0
0
0
0
0
0
0
0
0
0
0
0
0
0
0
0
0
0
0
0
0
0
0
0
0
0
0
0
0
0
0
0
0
0
0
0
0
0
0
0
9
8
0
0
8
0
0
0
9
0
0
0
0
0
0
0
0
0
0
0
0
0
0
0
8
0
0
0
0
0
0
0
0
0
0
0
0
0
0
0
0
0
0
0
0
0
0
0
0
0
0
0
0
0
0
0
0
0
0
0
0
0
0
0
0
0
0
0
0
0
0
0
0
0
0
0
0
0
0
0
0
CELL_DATA 259
SCALARS SlipSystem integer
LOOKUP_TABLE default
3
3
3
3
1
1
1
1
2
2
2
2
2
2
2
2
1
1
3
3
2
2
2
2
1
1
3
1
2
3
3
3
3
3
1
1
3
3
3
3
3
3
3
1
1
1
1
2
2
1
1
1
1
2
1
1
1
1
1
1
1
1
1
1
1
2
2
2
2
2
2
2
3
3
1
1
1
1
2
2
2
2
2
2
2
2
3
3
1
1
1
1
1
3
3
1
1
2
2
2
1
3
3
1
1
1
1
2
2
3
3
1
1
1
1
3
3
3
3
1
1
2
2
1
2
2
2
2
1
2
2
2
2
3
3
1
1
1
1
1
3
1
1
3
2
2
2
3
3
1
2
1
1
1
1
2
2
2
2
2
3
1
2
1
1
1
1
1
1
1
1
3
3
3
3
1
3
3
2
2
1
1
2
2
3
3
1
1
3
2
1
1
2
3
1
2
2
1
3
3
3
1
1
2
3
2
2
1
1
2
1
1
1
1
1
1
1
1
1
1
3
3
1
3
3
1
1
1
3
3
2
1
1
1
1
1
1
3
1
1
1
3
2
3
1
1
2
1
1
1
1
1
1
1
1
1
3
1
1
