# vtk DataFile Version 1.0
dislocation microstructure
ASCII
DATASET POLYDATA
POINTS 265 float
-1.407136E+02		-2.213016E+02		3.620151E+02
-4.069171E+02		1.959506E+01		3.873221E+02
-2.678171E+02		5.735064E+02		-3.056893E+02
-3.585793E+02		4.159045E+02		-5.732522E+01
2.435975E+02		5.088909E+02		-7.524885E+02
-3.645297E+01		4.790810E+02		-4.426281E+02
1.137360E+01		4.804267E+01		-5.941627E+01
2.977420E+02		-2.208350E+02		-7.690702E+01
-3.705953E+02		-3.364613E+02		7.070566E+02
-2.633774E+02		-5.962946E+01		3.230069E+02
-5.059046E+01		-1.177741E+02		1.683646E+02
-3.709113E+00		-3.770962E+02		3.808053E+02
-5.645235E+02		3.793574E+02		1.851661E+02
-3.703694E+02		9.044315E+01		2.799262E+02
-5.304416E+02		4.354699E+02		9.497178E+01
-5.136564E+02		1.737037E+02		3.399526E+02
-4.002894E+02		6.227393E+02		-2.224499E+02
-1.296146E+02		4.379697E+02		-3.083551E+02
3.132033E+01		-1.863970E+02		1.550767E+02
-2.594066E+02		2.052232E+02		5.418340E+01
5.559540E+02		2.224913E+01		-5.782031E+02
6.021915E+02		-3.324134E+02		-2.697781E+02
-9.943729E+01		-2.899623E+02		3.893996E+02
3.188077E+01		-5.505567E+02		5.186760E+02
-2.457631E+02		2.346175E+02		1.114560E+01
-1.949524E+01		-1.452330E+02		1.647282E+02
-9.827015E+01		-1.374652E+02		2.357353E+02
5.867470E+02		5.971553E+01		-6.464626E+02
-9.829049E+01		-1.499028E+02		2.481933E+02
-1.119729E+02		-2.059981E+02		3.179710E+02
-2.046096E+02		1.404506E+02		6.415906E+01
-4.492190E+02		9.456862E+00		4.397622E+02
1.377923E+02		-3.476053E+02		2.098130E+02
-3.682668E+02		6.274132E+02		-2.591464E+02
-3.363500E+02		2.230645E+02		1.132856E+02
-2.782321E+02		5.510301E+02		-2.727980E+02
-3.276679E+02		2.061768E+02		1.214911E+02
7.436534E+02		-5.947343E+01		-6.841800E+02
1.478365E+02		5.877517E+02		-7.355882E+02
-1.242401E+02		-1.324012E+02		2.566413E+02
5.540786E+02		-4.503864E+01		-5.090400E+02
-7.373451E+01		-1.005277E+02		1.742622E+02
6.216049E+02		-2.139398E+02		-4.076651E+02
2.098878E+02		-1.498080E+02		-6.007977E+01
5.663690E+02		-7.537642E+01		-4.909925E+02
6.165090E+02		1.408390E+02		-7.573480E+02
-5.500063E+02		-4.055375E+01		5.905601E+02
-5.518137E+02		-1.630434E+02		7.148571E+02
-4.785019E+02		-2.865584E+02		7.650603E+02
-4.102118E+02		-3.288628E+02		7.390746E+02
-4.917253E+02		2.365878E+01		4.680665E+02
6.083140E+02		-1.751000E+02		-4.332140E+02
5.871770E+02		-1.224486E+02		-4.647283E+02
-3.047403E+02		9.385313E+02		-6.337910E+02
-5.091192E+02		-2.538932E+02		7.630124E+02
8.118870E+02		-2.936457E+02		-5.182413E+02
2.030308E+02		-4.317491E+02		2.287183E+02
1.928235E+02		-4.927452E+02		2.999217E+02
-5.305693E+02		3.682375E+02		1.623318E+02
-3.775076E+02		5.657837E+02		-1.882761E+02
6.575451E+02		-3.819613E+02		-2.755837E+02
-3.456159E+02		1.632211E+02		1.823948E+02
-5.131575E+02		5.557681E+02		-4.261068E+01
-4.583227E+02		4.299079E+02		2.841478E+01
-3.949128E+02		1.965747E+02		1.983381E+02
-4.778460E+02		4.572467E+02		2.059931E+01
8.163132E+02		-2.284394E+02		-5.878738E+02
-2.724739E+02		9.197240E+02		-6.472501E+02
-4.274764E+02		3.797123E+02		4.776411E+01
2.844988E+01		6.482928E+02		-6.767427E+02
3.865542E+02		-4.265724E+02		4.001819E+01
-1.754076E+02		-1.182544E+02		2.936620E+02
-2.907794E+02		6.082031E+02		-3.174237E+02
2.015280E+02		-4.019846E+02		2.004566E+02
6.238796E+02		-4.312038E+02		-1.926758E+02
-1.031409E+02		1.907650E+02		-8.762415E+01
-2.027072E+02		2.404122E+02		-3.770504E+01
-2.423100E+02		2.231890E+02		1.912103E+01
8.167352E+02		-2.622496E+02		-5.544856E+02
7.693073E+02		-9.445230E+01		-6.748550E+02
6.384850E+02		2.241705E+01		-6.609020E+02
7.573930E+02		-3.686977E+02		-3.886953E+02
6.815399E+02		-3.837735E+02		-2.977664E+02
-1.831853E+02		5.096009E+02		-3.264156E+02
-1.981705E+01		-3.402571E+02		3.600741E+02
-6.010946E+01		-3.066644E+02		3.667739E+02
1.345068E+02		-5.597748E+02		4.252680E+02
7.529853E+01		-5.664189E+02		4.911204E+02
-4.680647E+02		2.196544E+02		2.484103E+02
2.351202E+02		-3.756781E+02		1.405579E+02
-2.223679E+02		5.327235E+02		-3.103556E+02
7.895028E+01		5.612101E+02		-6.401603E+02
4.363052E+01		-8.158384E+01		3.795332E+01
-3.313734E+00		4.389128E+02		-4.355990E+02
1.027404E+02		4.759900E+02		-5.787304E+02
-4.286277E+02		2.514290E+02		1.771987E+02
-4.480772E+02		2.981593E+02		1.499179E+02
-3.598032E+02		2.571940E+02		1.026091E+02
-4.134204E+02		3.509195E+02		6.250081E+01
-4.899095E+02		2.076164E+02		2.822931E+02
1.843953E+02		5.382817E+02		-7.226770E+02
-4.989807E+02		4.546779E+02		4.430285E+01
-3.570539E+02		1.024417E+02		2.546122E+02
-1.355550E+02		5.383434E+01		8.172068E+01
1.064980E+02		-5.434967E+01		-5.214832E+01
-5.584742E+02		-9.139484E+01		6.498691E+02
-5.301596E+02		-6.893777E-01		5.308490E+02
-5.580074E+02		-1.233340E+02		6.813414E+02
-5.330483E+02		-2.154140E+02		7.484623E+02
1.977338E+02		-3.789367E+02		1.812029E+02
-5.142073E+02		1.475358E+01		4.994538E+02
1.712463E+02		-3.657121E+02		1.944658E+02
9.879436E+01		5.017405E+02		-6.005349E+02
-5.693678E+02		6.088389E+02		-3.947119E+01
-4.603657E+02		4.879062E+02		-2.754057E+01
-3.022367E+02		5.562383E+02		-2.540016E+02
-1.027407E+02		7.942024E+02		-6.914617E+02
-5.178639E+01		1.161417E+02		-6.435533E+01
-4.118201E+02		5.327979E+02		-1.209778E+02
-4.351530E+01		8.158920E+01		-3.807389E+01
1.864000E+02		-1.255134E+02		-6.088666E+01
-1.494448E+02		2.253562E+02		-7.591142E+01
-7.068453E+01		1.515873E+02		-8.090276E+01
8.102839E+02		-1.908651E+02		-6.194187E+02
8.011751E+02		-3.225814E+02		-4.785937E+02
3.342380E+02		-3.913772E+02		5.713920E+01
1.725913E+02		-5.303723E+02		3.577810E+02
-3.324774E+02		6.341907E+02		-3.017133E+02
3.701642E+00		6.878715E+01		-7.248880E+01
-5.555845E+02		-6.433813E+01		6.199227E+02
-5.417040E+02		-1.936208E+01		5.610661E+02
-3.688192E+02		9.742401E+02		-6.054209E+02
5.759687E+02		3.672827E+01		-6.126970E+02
7.139969E+02		-2.868000E+01		-6.853169E+02
4.203394E+02		-4.447043E+02		2.436491E+01
-1.416042E+02		8.276644E+02		-6.860602E+02
-2.388269E+02		-8.514171E+01		3.239686E+02
6.404973E+02		-3.791334E+02		-2.613640E+02
7.225686E+02		-3.812831E+02		-3.412856E+02
6.198022E+02		1.603456E+02		-7.801478E+02
1.391310E+02		6.773657E+02		-8.164967E+02
4.942718E+01		-2.854613E+02		2.360341E+02
1.820021E+01		-2.513731E+02		2.331729E+02
-3.965329E+02		9.926633E+02		-5.961303E+02
-4.774192E+02		5.271335E+02		-4.971425E+01
6.286319E+01		5.933854E+02		-6.562486E+02
-4.935759E+02		3.452986E+02		1.482773E+02
5.516800E+01		-1.190685E+02		6.390049E+01
-4.440577E+02		-3.121514E+02		7.562091E+02
-1.673512E+02		9.622808E+01		7.112312E+01
-1.446828E+02		4.729779E+02		-3.282951E+02
9.196088E+01		5.275673E+02		-6.195281E+02
-3.736265E+02		1.745038E+02		1.991227E+02
7.833367E+02		-3.483661E+02		-4.349706E+02
2.906203E+02		-3.604046E+02		6.978427E+01
7.963010E+02		-1.469230E+02		-6.493780E+02
-5.191299E+02		4.498918E+02		6.923809E+01
-2.221799E+02		8.876503E+02		-6.654704E+02
4.879795E+02		-4.683987E+02		-1.958084E+01
5.468825E+02		-2.251626E+01		-5.243663E+02
-3.559439E+01		7.275369E+02		-6.919425E+02
5.438987E+02		6.723986E+00		-5.506226E+02
-6.663018E+02		7.195433E+02		-5.324142E+01
-2.468271E+01		-1.404832E+02		1.651659E+02
-2.058580E+02		-1.052339E+02		3.110919E+02
-2.274269E+02		2.358779E+02		-8.450952E+00
-1.808582E+02		8.583705E+02		-6.775122E+02
-1.480046E+02		-1.267927E+02		2.747973E+02
5.215241E+02		-4.730326E+02		-4.849148E+01
2.002171E+02		-4.634203E+02		2.632032E+02
-4.019733E+02		4.573813E+02		-5.540796E+01
4.669564E+01		6.208217E+02		-6.675173E+02
-6.334542E+02		6.816021E+02		-4.814792E+01
2.656301E+02		-3.550106E+02		8.938047E+01
-3.354744E+02		9.555818E+02		-6.201074E+02
1.350426E+02		-7.716364E+01		-5.787899E+01
6.320902E+02		-2.531126E+02		-3.789776E+02
1.849433E+02		-5.110042E+02		3.260608E+02
-1.009806E+02		-1.787781E+02		2.797587E+02
-4.696955E+02		3.240921E+02		1.456034E+02
-4.347566E+02		5.011658E+02		-6.640922E+01
-4.230003E+02		5.192495E+02		-9.624921E+01
4.451650E+01		-1.741344E+02		1.296179E+02
-3.534524E+02		1.517289E+02		2.017236E+02
6.006469E+02		8.692915E+01		-6.875760E+02
6.390137E+02		-3.229577E+02		-3.160560E+02
-3.525203E+02		6.340558E+02		-2.815355E+02
-1.080084E+02		9.380586E+00		9.862780E+01
-6.802416E+02		7.339721E+02		-5.373055E+01
-5.957697E+02		6.373536E+02		-4.158391E+01
2.461543E+02		-1.818366E+02		-6.431769E+01
6.243094E+02		1.901940E+02		-8.145034E+02
-2.323002E+01		-1.708373E+02		1.940673E+02
7.869717E+01		4.169019E+02		-4.955991E+02
-3.493158E+02		1.273768E+02		2.219389E+02
8.145494E+01		-3.584692E+01		-4.560802E+01
-4.843451E+02		2.253410E+01		4.618110E+02
1.633882E+02		5.621627E+02		-7.255510E+02
-5.173096E+02		5.883384E+01		4.584757E+02
-3.975099E+02		5.469254E+02		-1.494155E+02
-3.877993E+02		3.024282E+02		8.537102E+01
6.253434E+02		1.911532E+02		-8.164967E+02
-2.537658E+02		5.447717E+02		-2.910059E+02
1.079097E+02		-5.668898E+02		4.589801E+02
1.559095E+02		-5.471091E+02		3.911996E+02
-4.330206E+02		4.972985E+02		-6.427789E+01
1.121567E+02		-3.326122E+02		2.204555E+02
-5.386693E+02		9.403527E+01		4.446340E+02
2.093464E+02		5.175104E+02		-7.268568E+02
-9.423622E+00		-2.082169E+02		2.176406E+02
-3.774326E+02		6.104791E+02		-2.330465E+02
-5.427300E+02		5.823805E+02		-3.965052E+01
-4.097676E+02		1.004446E+03		-5.946785E+02
5.207006E+01		-1.582050E+02		1.061349E+02
2.312073E+02		-1.700721E+02		-6.113516E+01
-3.307473E+02		1.770525E+02		1.536948E+02
-9.257556E+01		-2.210022E+01		1.146758E+02
-3.464400E+02		5.630783E+02		-2.166383E+02
6.393107E+02		-2.978768E+02		-3.414339E+02
-3.114004E+02		6.240672E+02		-3.126668E+02
6.092281E+02		3.351317E+01		-6.427412E+02
-8.060509E+01		-5.479717E+01		1.354023E+02
-2.406706E+02		2.110049E+02		2.966567E+01
-3.819356E+02		4.346516E+02		-5.271605E+01
-4.353194E+02		2.275549E+02		2.077645E+02
-6.848629E+01		7.617743E+02		-6.932880E+02
-7.693746E+01		-7.773267E+01		1.546701E+02
-3.324296E+00		6.901912E+02		-6.868669E+02
5.822897E+02		-4.637866E+02		-1.185032E+02
6.128865E+02		1.212236E+02		-7.341101E+02
4.530302E+02		-4.583428E+02		5.312625E+00
6.762963E+02		1.058806E+00		-6.773551E+02
-4.232496E+02		9.914696E+00		4.133349E+02
8.288734E+01		-3.130687E+02		2.301814E+02
7.401112E+02		-3.751645E+02		-3.649467E+02
-5.509523E+02		1.758687E+02		3.750836E+02
5.551850E+01		-1.403786E+02		8.486013E+01
1.361374E+02		6.141654E+02		-7.503029E+02
5.536705E+02		-4.716673E+02		-8.200323E+01
3.599893E+02		-4.096299E+02		4.964059E+01
-5.532328E+02		1.339044E+02		4.193284E+02
6.053943E+02		-4.502519E+02		-1.551424E+02
3.952568E+01		4.163427E+02		-4.558684E+02
9.937088E+01		4.414402E+02		-5.408110E+02
-5.116254E+02		1.829786E+02		3.286468E+02
-4.401326E+02		4.049932E+02		3.513939E+01
-3.693118E+02		5.746516E+02		-2.053398E+02
-1.779377E+02		2.367441E+02		-5.880637E+01
-2.473697E+02		9.041318E+02		-6.567620E+02
6.291896E+02		-3.471148E+02		-2.820748E+02
2.705737E+02		-1.969435E+02		-7.363019E+01
5.609076E+02		2.488428E+01		-5.857919E+02
5.980750E+02		-1.487293E+02		-4.493457E+02
-5.343426E+02		1.845315E+02		3.498111E+02
1.615202E+02		-1.008740E+02		-6.064622E+01
1.306052E+02		6.477998E+02		-7.784050E+02
6.348140E+02		-4.123197E+02		-2.224943E+02
-5.440199E+02		-1.887756E+02		7.327954E+02
-8.035266E+01		-1.243591E+02		2.047117E+02
-2.303377E+02		1.837898E+02		4.654788E+01
-2.217871E+02		1.648420E+02		5.694509E+01
7.839382E+02		-1.206404E+02		-6.632978E+02
2.532719E+02		-3.633619E+02		1.100900E+02
3.089230E+02		-3.725775E+02		6.365451E+01
-5.550218E+02		1.563435E+02		3.986782E+02
LINES 257 771
2		0		29
2		1		232
2		2		72
2		3		223
2		4		208
2		5		93
2		6		128
2		7		250
2		8		49
2		9		136
2		10		163
2		11		84
2		12		58
2		13		102
2		14		156
2		15		244
2		16		210
2		17		150
2		18		182
2		19		222
2		20		251
2		21		249
2		22		85
2		23		87
2		24		222
2		25		163
2		26		28
2		26		258
2		26		39
2		27		184
2		27		132
2		28		178
2		29		178
2		30		149
2		30		260
2		31		232
2		31		196
2		32		206
2		32		111
2		33		186
2		33		210
2		34		97
2		34		36
2		35		202
2		35		115
2		36		215
2		37		133
2		37		79
2		38		237
2		38		197
2		39		167
2		40		159
2		40		44
2		41		258
2		41		226
2		42		176
2		42		51
2		43		214
2		43		120
2		44		52
2		45		229
2		45		139
2		46		129
2		46		130
2		47		107
2		47		257
2		48		148
2		48		54
2		49		148
2		50		196
2		50		110
2		51		252
2		52		252
2		53		174
2		53		67
2		54		108
2		55		124
2		55		78
2		56		169
2		56		73
2		57		169
2		57		177
2		58		146
2		59		217
2		59		199
2		59		246
2		60		137
2		60		82
2		61		215
2		61		183
2		62		211
2		62		144
2		63		245
2		63		65
2		64		224
2		64		152
2		65		114
2		65		101
2		66		123
2		66		78
2		67		248
2		68		98
2		68		245
2		69		227
2		69		171
2		70		134
2		70		239
2		71		164
2		71		167
2		72		219
2		73		109
2		74		256
2		74		241
2		75		121
2		75		122
2		76		165
2		76		247
2		77		165
2		77		222
2		79		261
2		80		231
2		80		220
2		81		153
2		81		234
2		82		138
2		83		150
2		83		90
2		84		85
2		86		203
2		86		204
2		87		203
2		88		224
2		88		99
2		89		109
2		89		262
2		90		202
2		91		151
2		91		145
2		92		147
2		93		242
2		94		243
2		94		112
2		95		96
2		95		224
2		96		179
2		97		200
2		98		200
2		99		244
2		100		208
2		100		197
2		101		156
2		102		194
2		103		187
2		103		149
2		104		175
2		104		195
2		105		107
2		105		129
2		106		110
2		106		130
2		108		257
2		109		111
2		112		151
2		113		211
2		113		189
2		114		205
2		115		217
2		116		135
2		116		225
2		117		122
2		117		119
2		118		199
2		118		181
2		120		254
2		121		247
2		123		155
2		124		153
2		125		239
2		125		263
2		126		204
2		126		177
2		127		186
2		127		219
2		131		174
2		131		143
2		132		220
2		132		251
2		133		231
2		134		230
2		135		166
2		136		164
2		137		249
2		137		256
2		138		234
2		139		191
2		140		255
2		141		233
2		141		142
2		142		209
2		143		212
2		144		180
2		145		171
2		146		179
2		147		236
2		152		183
2		154		263
2		154		173
2		155		261
2		157		166
2		157		248
2		158		230
2		158		168
2		159		161
2		160		225
2		160		227
2		161		251
2		162		172
2		162		188
2		163		192
2		168		238
2		170		223
2		170		205
2		172		189
2		173		262
2		175		254
2		176		218
2		180		205
2		180		181
2		182		213
2		183		194
2		184		229
2		185		218
2		185		249
2		187		216
2		190		250
2		190		214
2		191		201
2		192		209
2		193		242
2		193		243
2		196		198
2		198		207
2		206		233
2		207		240
2		210		246
2		213		236
2		216		221
2		221		226
2		222		259
2		228		238
2		228		241
2		235		253
2		235		264
2		237		255
2		240		264
2		244		253
2		259		260
POINT_DATA 265
scalars NodeType integer
LOOKUP_TABLE default
7
7
7
7
7
7
7
7
7
7
7
7
7
7
7
7
7
7
7
7
7
7
7
7
7
7
0
0
0
0
0
0
0
0
0
0
0
0
0
0
0
0
0
0
0
0
0
0
0
0
0
0
0
0
0
0
0
0
0
0
0
0
0
0
0
0
0
0
0
0
0
0
0
0
0
0
0
0
0
0
0
0
0
0
0
0
0
0
0
0
0
0
9
0
0
0
0
0
0
0
0
0
0
0
0
0
0
0
0
0
0
0
0
0
0
0
0
0
0
9
0
0
0
0
0
0
0
0
9
0
0
0
0
0
0
0
0
0
0
0
8
0
0
0
0
0
0
0
0
0
0
0
0
0
0
0
0
0
0
0
0
0
0
0
0
0
0
0
0
0
0
0
0
0
0
0
0
0
0
0
0
0
0
0
0
0
0
0
8
0
0
0
0
0
0
9
0
0
0
0
0
8
0
0
0
0
0
0
0
0
0
0
8
0
0
0
0
0
0
0
0
0
0
0
0
0
0
0
0
0
0
0
0
0
0
0
0
0
0
0
0
0
0
0
0
0
0
0
0
0
0
0
0
0
0
0
0
0
0
0
0
0
0
0
0
CELL_DATA 257
SCALARS SlipSystem integer
LOOKUP_TABLE default
3
3
3
3
1
1
1
1
2
2
2
2
2
2
2
2
1
1
3
3
2
2
2
2
1
1
3
1
2
1
1
3
3
1
1
3
3
3
3
3
3
3
3
1
1
3
2
2
1
1
2
1
1
1
1
1
1
1
1
1
1
1
2
2
2
2
2
2
2
2
2
1
1
1
1
2
2
2
2
2
2
2
2
1
3
2
2
2
3
3
1
1
3
3
1
1
1
2
2
2
1
3
3
1
1
1
1
2
2
3
2
1
1
3
3
3
3
3
3
2
2
2
2
2
2
1
1
2
2
2
2
3
3
1
1
1
1
1
3
1
1
1
2
2
2
3
3
3
1
1
2
2
1
1
1
1
2
2
2
2
2
3
1
1
1
1
1
1
1
3
3
3
3
1
3
2
2
1
1
2
2
3
3
1
1
2
3
2
1
1
2
3
1
2
1
1
3
3
3
1
1
1
2
3
1
1
1
2
1
1
1
1
1
1
1
1
1
1
3
1
3
3
1
1
1
1
13
3
3
2
1
1
1
1
1
1
1
3
1
1
1
1
3
1
2
3
1
1
1
1
1
1
1
1
1
1
1
