# vtk DataFile Version 1.0
dislocation microstructure
ASCII
DATASET POLYDATA
POINTS 242 float
-1.407136E+02		-2.213016E+02		3.620151E+02
-4.069171E+02		1.959506E+01		3.873221E+02
-2.678171E+02		5.735064E+02		-3.056893E+02
-3.585793E+02		4.159045E+02		-5.732522E+01
2.435975E+02		5.088909E+02		-7.524885E+02
-3.645297E+01		4.790810E+02		-4.426281E+02
1.137360E+01		4.804267E+01		-5.941627E+01
2.977420E+02		-2.208350E+02		-7.690702E+01
-3.705953E+02		-3.364613E+02		7.070566E+02
-2.633774E+02		-5.962946E+01		3.230069E+02
-5.059046E+01		-1.177741E+02		1.683646E+02
-3.709113E+00		-3.770962E+02		3.808053E+02
-5.645235E+02		3.793574E+02		1.851661E+02
-3.703694E+02		9.044315E+01		2.799262E+02
-5.304416E+02		4.354699E+02		9.497178E+01
-5.136564E+02		1.737037E+02		3.399526E+02
-4.002894E+02		6.227393E+02		-2.224499E+02
-1.296146E+02		4.379697E+02		-3.083551E+02
3.132033E+01		-1.863970E+02		1.550767E+02
-2.594066E+02		2.052232E+02		5.418340E+01
5.559540E+02		2.224913E+01		-5.782031E+02
6.021915E+02		-3.324134E+02		-2.697781E+02
-9.943729E+01		-2.899623E+02		3.893996E+02
3.188077E+01		-5.505567E+02		5.186760E+02
-2.457631E+02		2.346175E+02		1.114560E+01
-1.949524E+01		-1.452330E+02		1.647282E+02
-1.327742E+02		-1.010526E+02		2.338269E+02
5.045019E+02		1.338979E+02		-6.383997E+02
-1.233144E+02		-1.385251E+02		2.618395E+02
-1.220705E+02		-1.963651E+02		3.184356E+02
-2.384617E+02		1.016476E+02		1.368141E+02
-4.418435E+02		2.293295E+01		4.189106E+02
-4.323161E+02		5.689164E+02		-1.366003E+02
-3.683517E+02		6.260732E+02		-2.577215E+02
-3.143085E+02		2.360713E+02		7.823713E+01
-4.216004E+02		4.985671E+02		-7.696671E+01
-2.922643E+02		2.146555E+02		7.760887E+01
7.221468E+02		-7.012738E+01		-6.520194E+02
4.889740E+02		1.176441E+02		-6.066181E+02
4.374261E+02		1.145771E+01		-4.488838E+02
5.606992E+02		-3.367215E+02		-2.239777E+02
4.716026E+02		-4.419607E+01		-4.274065E+02
-1.299860E+02		-7.267347E+01		2.026595E+02
5.460660E+02		-1.977484E+02		-3.483176E+02
-4.101335E+02		4.720067E+02		-6.187320E+01
4.898711E+02		-7.526820E+01		-4.146029E+02
5.648136E+02		-3.060908E+02		-2.587228E+02
-5.174238E+02		-6.240594E+01		5.798297E+02
-5.194704E+02		-1.731697E+02		6.926401E+02
-4.688468E+02		-2.769745E+02		7.458214E+02
-4.115472E+02		-3.219338E+02		7.334810E+02
-4.803200E+02		1.103388E+01		4.692861E+02
5.340709E+02		-1.650545E+02		-3.690164E+02
5.134687E+02		-1.193857E+02		-3.940830E+02
-3.084008E+02		8.680079E+02		-5.596071E+02
-4.905400E+02		-2.484176E+02		7.389576E+02
7.773552E+02		-2.712373E+02		-5.061178E+02
1.674986E+02		-4.132326E+02		2.457340E+02
1.599269E+02		-4.704613E+02		3.105344E+02
-5.306627E+02		3.657004E+02		1.649623E+02
-2.558595E+02		1.795715E+02		7.628795E+01
-2.770972E+02		1.318418E+02		1.452554E+02
-3.233095E+02		1.342052E+02		1.891042E+02
-4.098624E+02		4.232437E+02		-1.338131E+01
-4.922530E+02		4.475657E+02		4.468725E+01
-4.421326E+02		2.048558E+02		2.372768E+02
-4.738768E+02		1.716516E+02		3.022253E+02
7.787024E+02		-2.126272E+02		-5.660751E+02
-2.815709E+02		8.533021E+02		-5.717312E+02
-3.911399E+02		3.756722E+02		1.546772E+01
-2.538518E+01		6.303561E+02		-6.049709E+02
3.937845E+02		-3.720641E+02		-2.172039E+01
-1.806970E+02		-9.669707E+01		2.773941E+02
-2.927645E+02		6.037541E+02		-3.109895E+02
1.674034E+02		-3.877898E+02		2.203864E+02
5.486393E+02		-3.647542E+02		-1.838851E+02
-1.110965E+02		1.787499E+02		-6.765341E+01
-1.982211E+02		2.270575E+02		-2.883639E+01
-2.436926E+02		2.233944E+02		2.029818E+01
7.800672E+02		-2.426972E+02		-5.373700E+02
7.408493E+02		-9.803097E+01		-6.428184E+02
6.378523E+02		4.799984E+00		-6.426523E+02
7.360874E+02		-3.435688E+02		-3.925185E+02
6.718485E+02		-3.610204E+02		-3.108281E+02
-1.847368E+02		4.688674E+02		-2.841306E+02
-2.098870E+01		-3.399628E+02		3.609515E+02
-6.053858E+01		-3.069642E+02		3.675028E+02
1.191395E+02		-5.412131E+02		4.220736E+02
7.248470E+01		-5.576567E+02		4.851720E+02
-4.542143E+02		1.853633E+02		2.688510E+02
1.782865E+02		-3.052213E+02		1.269348E+02
-2.099733E+02		4.722937E+02		-2.623204E+02
-4.068514E+02		4.205746E+02		-1.372328E+01
4.383323E+01		-8.157385E+01		3.774063E+01
3.553715E-01		4.568404E+02		-4.571958E+02
3.649055E+01		5.033687E+02		-5.398592E+02
-4.385516E+02		2.533280E+02		1.852236E+02
-4.567250E+02		2.977429E+02		1.589821E+02
-3.355739E+02		2.638598E+02		7.171410E+01
-3.807830E+02		3.500077E+02		3.077531E+01
-3.932155E+02		6.080939E+02		-2.148784E+02
-4.328573E+02		5.443212E+02		-1.114638E+02
1.876492E+02		-2.271133E+02		3.946408E+01
4.189997E+02		7.142049E+01		-4.904202E+02
-1.838211E+02		3.854876E+01		1.452723E+02
4.235178E+02		3.593649E+01		-4.594543E+02
-5.235499E+02		-1.098358E+02		6.333856E+02
-5.045179E+02		-2.244887E+01		5.269667E+02
-5.235133E+02		-1.383960E+02		6.619092E+02
-5.067699E+02		-2.172123E+02		7.239822E+02
-4.583906E+02		2.292871E+01		4.354619E+02
-4.944840E+02		-4.740466E+00		4.992245E+02
1.435621E+02		-3.121450E+02		1.685829E+02
1.643333E+02		-3.589564E+02		1.946231E+02
-2.634797E+02		1.357761E+02		1.277036E+02
-4.080094E+02		4.368303E+02		-2.882087E+01
-2.704361E+02		4.794739E+02		-2.090378E+02
-1.351261E+02		7.480231E+02		-6.128970E+02
-5.900998E+01		1.165399E+02		-5.752997E+01
4.320300E+02		8.058336E+01		-5.126134E+02
-4.400425E+01		8.156486E+01		-3.756061E+01
1.475445E+02		-1.495556E+02		2.011037E+00
-1.517624E+02		2.080875E+02		-5.632515E+01
-8.028178E+01		1.470230E+02		-6.674118E+01
7.731618E+02		-1.800399E+02		-5.931219E+02
7.699437E+02		-2.981612E+02		-4.717826E+02
3.556986E+02		-3.470877E+02		-8.610913E+00
1.465018E+02		-5.076902E+02		3.611884E+02
-3.303405E+02		6.246170E+02		-2.942765E+02
3.862910E+00		6.870004E+01		-7.256295E+01
-5.213235E+02		-8.491322E+01		6.062367E+02
-5.119231E+02		-4.168018E+01		5.536033E+02
-3.656159E+02		8.948552E+02		-5.292393E+02
5.891796E+02		2.387636E+01		-6.130559E+02
7.004780E+02		-4.433216E+01		-6.561458E+02
-4.595413E+02		1.661362E+02		2.934051E+02
-1.686317E+02		7.761123E+02		-6.074805E+02
-2.365496E+02		-7.829918E+01		3.148487E+02
6.332272E+02		-3.523354E+02		-2.808918E+02
7.072617E+02		-3.574421E+02		-3.498196E+02
5.357086E+02		2.090675E+02		-7.447761E+02
2.024804E+02		6.140162E+02		-8.164967E+02
6.085119E+01		-2.668709E+02		2.060197E+02
3.292286E+01		-2.425965E+02		2.096736E+02
-3.963262E+02		9.064586E+02		-5.101324E+02
-4.652096E+02		5.863488E+02		-1.211392E+02
3.206956E+00		5.873850E+02		-5.905919E+02
-4.954892E+02		3.415292E+02		1.539601E+02
5.257052E+01		-1.187574E+02		6.618690E+01
-4.408564E+02		-3.028832E+02		7.437396E+02
-2.089629E+02		7.025322E+01		1.387097E+02
-1.554584E+02		4.580396E+02		-3.025812E+02
2.615257E+01		5.409631E+02		-5.671157E+02
2.957361E+02		-2.831831E+02		-1.255297E+01
7.565586E+02		-3.229980E+02		-4.335606E+02
3.219954E+02		-3.165588E+02		-5.436593E+00
7.618129E+02		-1.424157E+02		-6.193971E+02
-5.149934E+02		4.450522E+02		6.994118E+01
-2.371688E+02		8.259718E+02		-5.888030E+02
4.113422E+02		6.161992E+01		-4.729621E+02
4.534772E+02		-1.474109E+01		-4.387361E+02
-7.866432E+01		6.936605E+02		-6.149962E+02
4.482914E+02		8.961089E+01		-5.379023E+02
-5.959918E+02		7.444462E+02		-1.484544E+02
-1.967879E+01		-1.450718E+02		1.647506E+02
-2.071915E+02		-9.022375E+01		2.974152E+02
-2.225600E+02		2.287222E+02		-6.162165E+00
-2.020456E+02		8.016082E+02		-5.995626E+02
-1.579724E+02		-9.953486E+01		2.575073E+02
4.846796E+02		-3.974417E+02		-8.723784E+01
1.650668E+02		-4.421928E+02		2.771260E+02
-2.649481E+02		1.934635E+02		7.148457E+01
-4.745281E+02		9.245905E+02		-4.500624E+02
-5.741979E+02		7.032516E+02		-1.290537E+02
1.885302E+02		-2.863212E+02		9.779100E+01
-3.348143E+02		8.812060E+02		-5.463917E+02
1.138869E+02		-1.118683E+02		-2.018607E+00
5.553626E+02		-2.297379E+02		-3.256246E+02
1.548610E+02		-4.877266E+02		3.328656E+02
-1.195016E+02		-1.680946E+02		2.875961E+02
-4.913779E+02		9.228358E+02		-4.314579E+02
-3.680408E+02		4.669917E+02		-9.895086E+01
-4.529842E+02		4.408348E+02		1.214936E+01
4.327433E+01		-1.728271E+02		1.295528E+02
-3.471550E+02		1.276275E+02		2.195274E+02
5.178491E+02		1.531714E+02		-6.710205E+02
-2.540487E+02		1.531753E+02		1.008734E+02
-3.443257E+02		4.782210E+02		-1.338953E+02
-1.608904E+02		3.912388E+00		1.569780E+02
-6.157754E+02		7.984383E+02		-1.826630E+02
-5.467015E+02		6.642187E+02		-1.175172E+02
2.781659E+02		-2.420551E+02		-3.611081E+01
5.364042E+02		2.356768E+02		-7.720810E+02
-1.344462E+01		-1.733776E+02		1.868223E+02
3.247976E+01		4.674469E+02		-4.999267E+02
-3.640159E+02		1.103973E+02		2.536186E+02
7.774351E+01		-8.511208E+01		7.368571E+00
-4.662245E+02		4.701922E+01		4.192052E+02
1.993605E+02		5.651615E+02		-7.645219E+02
5.329860E+02		2.640120E+02		-7.969980E+02
1.932012E+02		-2.650342E+02		7.183303E+01
-3.598005E+02		3.046230E+02		5.517745E+01
5.261411E+02		2.903556E+02		-8.164967E+02
-2.298472E+02		4.743546E+02		-2.445074E+02
9.844937E+01		-5.524280E+02		4.539786E+02
1.348536E+02		-5.258730E+02		3.910194E+02
-3.879354E+02		4.437787E+02		-5.584325E+01
1.148243E+02		-2.984287E+02		1.836044E+02
-4.908964E+02		9.167463E+01		3.992218E+02
2.187029E+02		5.304174E+02		-7.491203E+02
3.489043E+00		-2.061731E+02		2.026840E+02
-3.900161E+02		5.972239E+02		-2.072078E+02
-5.087108E+02		6.224632E+02		-1.137524E+02
-4.347482E+02		9.177838E+02		-4.830357E+02
5.023706E+01		-1.569014E+02		1.066643E+02
1.727304E+02		-1.900452E+02		1.731484E+01
-3.016040E+02		1.336477E+02		1.679563E+02
-1.303647E+02		-1.108046E+02		2.411693E+02
-3.070001E+02		4.818211E+02		-1.748210E+02
5.626715E+02		-2.675817E+02		-2.950899E+02
-3.955491E+02		1.397170E+02		2.558321E+02
6.134776E+02		1.460324E+01		-6.280808E+02
-1.383389E+02		-4.181448E+01		1.801533E+02
-2.457281E+02		2.054210E+02		4.030705E+01
1.557281E+02		-3.285504E+02		1.728223E+02
-4.272886E+02		1.576400E+02		2.696485E+02
-1.063304E+02		7.215413E+02		-6.152109E+02
4.694000E+02		1.023809E+02		-5.717809E+02
-5.189028E+01		6.637806E+02		-6.118903E+02
-4.837511E+02		1.587739E+02		3.249771E+02
5.230504E+02		-3.880884E+02		-1.349620E+02
5.292427E+02		1.787940E+02		-7.080368E+02
4.397240E+02		-3.912378E+02		-4.848618E+01
6.700787E+02		-1.662531E+01		-6.534534E+02
-6.048587E+02		7.690640E+02		-1.642054E+02
8.991152E+01		-2.859509E+02		1.960394E+02
-4.370953E+02		2.262861E+02		2.108092E+02
-4.061394E+02		5.788615E+02		-1.727222E+02
-4.959215E+02		1.364450E+02		3.594765E+02
5.325797E+01		-1.391309E+02		8.587288E+01
1.959758E+02		5.914299E+02		-7.874058E+02
5.041863E+02		-3.932824E+02		-1.109039E+02
LINES 233 699
2		0		29
2		1		31
2		2		73
2		3		206
2		4		209
2		5		94
2		6		129
2		7		191
2		8		50
2		9		137
2		10		164
2		11		85
2		12		59
2		13		195
2		14		157
2		15		66
2		16		211
2		17		151
2		18		183
2		19		223
2		20		133
2		21		138
2		22		86
2		23		88
2		24		223
2		25		164
2		26		217
2		26		42
2		26		168
2		27		185
2		27		38
2		28		179
2		28		217
2		29		179
2		30		150
2		30		61
2		31		110
2		31		197
2		32		145
2		32		101
2		32		237
2		33		100
2		33		128
2		34		98
2		34		36
2		35		101
2		35		44
2		36		171
2		37		134
2		37		80
2		38		227
2		39		160
2		39		105
2		40		75
2		40		46
2		41		160
2		41		45
2		42		222
2		43		177
2		43		52
2		44		206
2		45		53
2		46		219
2		47		130
2		47		131
2		48		108
2		48		109
2		49		149
2		49		55
2		50		149
2		51		110
2		51		111
2		52		53
2		54		175
2		54		68
2		55		109
2		56		125
2		56		79
2		57		170
2		57		74
2		58		170
2		58		178
2		59		147
2		60		171
2		60		186
2		61		114
2		61		216
2		62		216
2		62		184
2		63		92
2		63		182
2		64		182
2		64		157
2		65		89
2		65		236
2		66		89
2		67		124
2		67		79
2		68		158
2		69		99
2		69		92
2		70		146
2		70		228
2		71		232
2		71		126
2		72		165
2		72		168
2		73		128
2		74		113
2		75		230
2		76		122
2		76		123
2		77		122
2		77		166
2		78		166
2		78		223
2		80		156
2		81		233
2		81		221
2		82		139
2		82		154
2		83		139
2		83		138
2		84		151
2		84		91
2		85		86
2		87		204
2		87		205
2		88		204
2		90		112
2		90		174
2		91		203
2		92		115
2		93		148
2		93		196
2		94		194
2		95		152
2		95		194
2		96		236
2		96		97
2		97		147
2		98		201
2		99		201
2		100		211
2		102		215
2		102		200
2		103		119
2		103		159
2		104		188
2		104		150
2		105		159
2		106		108
2		106		130
2		107		111
2		107		131
2		112		224
2		112		207
2		113		224
2		114		186
2		115		206
2		116		203
2		116		218
2		117		136
2		117		226
2		118		123
2		118		120
2		119		162
2		121		215
2		121		176
2		124		156
2		125		154
2		126		155
2		127		205
2		127		178
2		132		175
2		132		144
2		133		221
2		134		233
2		135		225
2		135		229
2		136		167
2		137		165
2		140		231
2		140		192
2		141		240
2		142		235
2		142		143
2		143		210
2		144		213
2		145		212
2		146		152
2		148		239
2		153		191
2		153		155
2		158		167
2		161		226
2		161		228
2		162		227
2		163		173
2		163		234
2		164		193
2		169		232
2		169		241
2		171		223
2		172		213
2		172		180
2		173		190
2		174		200
2		176		196
2		177		219
2		181		187
2		181		206
2		183		214
2		184		195
2		185		231
2		187		218
2		188		222
2		189		234
2		190		212
2		192		199
2		193		210
2		195		220
2		197		208
2		198		240
2		198		209
2		199		202
2		207		235
2		208		238
2		211		237
2		214		239
2		220		225
2		229		238
2		230		241
POINT_DATA 242
scalars NodeType integer
LOOKUP_TABLE default
7
7
7
7
7
7
7
7
7
7
7
7
7
7
7
7
7
7
7
7
7
7
7
7
7
7
0
0
0
0
0
0
0
0
0
0
0
0
0
0
0
0
0
0
0
0
0
0
0
0
0
0
0
0
0
0
0
0
0
0
0
0
0
0
0
0
0
0
0
0
0
0
0
0
0
0
0
0
0
0
0
0
0
0
0
0
0
0
0
0
0
0
0
9
0
0
0
0
0
0
0
0
0
0
0
0
0
0
0
0
0
0
0
0
0
0
0
0
0
0
9
0
0
0
0
0
0
0
0
9
0
0
0
0
0
0
0
0
0
0
0
8
0
0
0
0
0
0
0
0
0
0
0
0
0
0
0
0
0
0
0
0
0
0
0
0
0
0
0
0
0
0
0
0
0
0
0
0
0
0
8
0
0
0
0
0
0
0
0
8
0
0
0
0
0
0
0
0
0
0
0
0
8
0
0
0
0
0
0
0
0
0
0
0
0
0
0
0
0
0
0
0
0
0
0
0
0
0
0
0
0
0
0
0
0
0
0
0
0
0
0
0
CELL_DATA 233
SCALARS SlipSystem integer
LOOKUP_TABLE default
3
3
3
3
1
1
1
1
2
2
2
2
2
2
2
2
1
1
3
3
2
2
2
2
1
1
3
1
2
1
1
3
3
3
1
1
2
1
1
3
2
3
3
3
3
3
3
3
2
2
1
1
1
1
1
1
1
1
1
1
3
1
1
2
2
2
2
2
2
2
2
2
1
1
1
2
2
2
2
2
2
2
2
2
2
2
3
3
3
2
2
2
2
2
2
2
2
2
1
3
3
1
1
1
1
2
2
3
2
1
3
3
3
3
3
3
2
2
2
2
2
2
2
1
1
2
2
2
2
1
1
1
1
3
1
1
1
1
2
2
2
3
3
3
1
1
1
1
1
1
1
2
2
2
2
2
3
2
2
1
1
1
1
1
3
3
1
1
1
2
2
1
2
2
1
1
2
2
1
1
1
2
1
1
1
3
3
3
1
1
1
3
1
1
1
1
1
1
1
1
3
1
1
1
1
1
1
1
1
1
1
1
3
3
1
1
1
1
1
1
3
1
1
1
1
1
3
1
2
3
1
1
1
