# vtk DataFile Version 1.0
dislocation microstructure
ASCII
DATASET POLYDATA
POINTS 288 float
-1.407136E+02		-2.213016E+02		3.620151E+02
-4.069171E+02		1.959506E+01		3.873221E+02
-2.678171E+02		5.735064E+02		-3.056893E+02
-3.585793E+02		4.159045E+02		-5.732522E+01
2.435975E+02		5.088909E+02		-7.524885E+02
-3.645297E+01		4.790810E+02		-4.426281E+02
1.137360E+01		4.804267E+01		-5.941627E+01
2.977420E+02		-2.208350E+02		-7.690702E+01
-3.705953E+02		-3.364613E+02		7.070566E+02
-2.633774E+02		-5.962946E+01		3.230069E+02
-5.059046E+01		-1.177741E+02		1.683646E+02
-3.709113E+00		-3.770962E+02		3.808053E+02
-5.645235E+02		3.793574E+02		1.851661E+02
-3.703694E+02		9.044315E+01		2.799262E+02
-5.304416E+02		4.354699E+02		9.497178E+01
-5.136564E+02		1.737037E+02		3.399526E+02
-4.002894E+02		6.227393E+02		-2.224499E+02
-1.296146E+02		4.379697E+02		-3.083551E+02
3.132033E+01		-1.863970E+02		1.550767E+02
-2.594066E+02		2.052232E+02		5.418340E+01
5.559540E+02		2.224913E+01		-5.782031E+02
6.021915E+02		-3.324134E+02		-2.697781E+02
-9.943729E+01		-2.899623E+02		3.893996E+02
3.188077E+01		-5.505567E+02		5.186760E+02
-2.457631E+02		2.346175E+02		1.114560E+01
-1.949524E+01		-1.452330E+02		1.647282E+02
-1.898121E+02		-2.178019E+02		4.076140E+02
1.026689E+03		-3.875249E+02		-6.391639E+02
-4.110349E+02		-8.620388E+01		4.972388E+02
-2.804295E+02		6.229833E+02		-3.425538E+02
-3.338877E+02		3.228977E+02		1.098996E+01
-3.954295E+02		-5.432180E+01		4.497512E+02
5.635328E+01		-4.806622E+02		4.243089E+02
-4.749452E+02		7.084847E+02		-2.335395E+02
-3.577748E+02		3.462619E+02		1.151289E+01
8.411703E+02		-4.887042E+02		-3.524662E+02
-3.114558E+02		2.971546E+02		1.430121E+01
-2.645481E+02		2.308272E+02		3.372093E+01
4.926777E+02		-1.262643E+02		-3.664134E+02
-8.525703E+02		1.362147E+02		7.163557E+02
-4.461644E+02		7.709180E+02		-3.247536E+02
7.905593E+02		-2.398462E+01		-7.665747E+02
5.664738E+01		-2.293879E+02		1.727405E+02
9.908292E+02		-3.415547E+02		-6.492745E+02
4.443548E+02		-3.918829E+01		-4.051665E+02
4.440253E+02		1.035863E+02		-5.476116E+02
8.515785E+02		-7.433134E+01		-7.772472E+02
-5.572842E+02		-1.099573E+02		6.672415E+02
-7.425613E+02		-4.182005E+01		7.843814E+02
-4.045629E+02		-4.119338E+02		8.164967E+02
-3.685041E+02		-3.794255E+02		7.479297E+02
-5.011078E+02		2.586721E+02		2.424357E+02
9.808471E+02		-2.744225E+02		-7.064246E+02
9.808696E+02		-1.891127E+02		-7.917569E+02
4.128030E+02		-3.571917E+02		-5.561129E+01
1.005041E+02		-6.167344E+02		5.162303E+02
-2.137403E+02		3.926162E+02		-1.788759E+02
1.010518E+03		-2.303732E+02		-7.801451E+02
5.351409E+02		-3.078988E+02		-2.272420E+02
-4.638480E+02		4.201792E+02		4.366880E+01
-4.837155E+02		6.435476E+02		-1.598322E+02
-2.966824E+02		8.356336E+02		-5.389512E+02
3.939427E+01		4.610305E+02		-5.004247E+02
8.657172E+02		-4.902665E+02		-3.754507E+02
-4.313163E+02		-1.038833E+02		5.351995E+02
4.881540E+02		1.728135E+02		-6.609674E+02
5.284593E+02		-3.251384E+02		-2.033209E+02
1.030249E+03		-3.257510E+02		-7.044981E+02
2.264247E+02		5.555479E+02		-7.819726E+02
6.980961E+01		-2.968978E+02		2.270882E+02
4.924742E+02		2.944388E+02		-7.869130E+02
4.411285E+02		-8.296510E+02		3.885225E+02
-1.664973E+02		-2.166655E+02		3.831628E+02
5.332511E+02		-2.430373E+02		-2.902139E+02
3.188086E+01		5.461156E+02		-5.779965E+02
-2.775887E+02		-1.207721E+02		3.983609E+02
-4.658956E+01		2.188898E+02		-1.723003E+02
-2.704770E+02		3.214011E+02		-5.092405E+01
1.026570E+03		-3.849814E+02		-6.415886E+02
-2.801589E+02		9.114455E+01		1.890143E+02
3.878834E+02		-3.471187E+02		-4.076467E+01
6.724608E+01		-3.228953E+02		2.556492E+02
1.646753E+01		-3.866029E+02		3.701354E+02
-2.958882E+01		6.438894E+02		-6.143006E+02
8.395315E+00		-4.100051E+02		4.016098E+02
6.143968E+01		-3.448643E+02		2.834246E+02
6.432949E+01		-5.941123E+02		5.297828E+02
-5.281027E+02		3.211141E+02		2.069886E+02
1.201376E+02		-5.839653E+02		4.638277E+02
-1.852111E+02		7.812447E+02		-5.960336E+02
1.001043E+03		-2.057571E+02		-7.952857E+02
9.342946E+02		-1.585604E+02		-7.757342E+02
3.889296E+01		-3.777571E+02		3.388642E+02
4.985892E+02		2.200243E+02		-7.186135E+02
8.179892E+02		-4.517823E+01		-7.728109E+02
8.747487E+02		-9.641273E+01		-7.783359E+02
-6.832322E+02		-6.322628E+01		7.464584E+02
1.026719E+03		-2.918475E+02		-7.348714E+02
9.667354E+02		-2.071900E+02		-7.595454E+02
8.135005E+02		-4.849610E+02		-3.285396E+02
-2.140071E+02		4.181422E+02		-2.041350E+02
-3.382223E+02		7.959215E+01		2.586301E+02
6.700650E+02		4.177047E+01		-7.118355E+02
5.217815E+01		-3.635854E+02		3.114072E+02
-7.905255E+01		-3.355468E+02		4.145993E+02
-3.965378E+02		3.785350E+02		1.800282E+01
-7.438403E+02		-2.158143E+01		7.654217E+02
-7.671518E+02		-4.934481E+01		8.164967E+02
1.034337E+02		-5.479915E+02		4.445578E+02
-8.291543E+02		9.340804E+01		7.357463E+02
8.175995E+01		-5.149698E+02		4.332099E+02
4.765539E+02		-9.492493E+01		-3.816290E+02
4.608420E+02		-6.697954E+01		-3.938625E+02
6.909636E+01		-2.022497E+02		1.331534E+02
1.257930E+02		-6.015357E+02		4.757426E+02
7.283083E+01		-1.797142E+02		1.068834E+02
-3.250010E+01		8.111767E+01		-4.861757E+01
-4.744527E+02		5.573590E+02		-8.290636E+01
-3.698409E+01		2.017903E+02		-1.648062E+02
4.051638E+02		2.907332E+01		-4.342371E+02
-1.757309E+02		3.334334E+02		-1.577026E+02
4.991065E+02		2.547520E+02		-7.538585E+02
1.019203E+03		-2.546849E+02		-7.645179E+02
4.645121E+02		-3.684076E+02		-9.610450E+01
3.779657E+02		-8.012577E+02		4.232919E+02
-3.816710E+02		-3.974112E+02		7.790821E+02
1.952265E+02		-6.890803E+02		4.938539E+02
3.547611E+00		6.887010E+01		-7.241771E+01
-3.151531E+02		6.779940E+02		-3.628409E+02
5.369890E+02		-2.755961E+02		-2.613929E+02
3.100785E+02		-2.811750E+02		-2.890349E+01
6.385978E+02		-4.040961E+02		-2.345016E+02
-1.325303E+02		3.054427E+02		-1.729125E+02
4.861566E+02		-8.500418E+02		3.638852E+02
-4.842261E+02		6.217202E+02		-1.374941E+02
-2.810684E+02		-8.559796E+01		3.666663E+02
-6.368705E+01		2.433042E+02		-1.796171E+02
-7.165491E+02		-4.413703E+01		7.606861E+02
-6.479641E+02		-7.949272E+01		7.274569E+02
-2.329526E+02		-1.844916E+02		4.174442E+02
-8.733153E+02		1.819595E+02		6.913557E+02
3.996300E+02		6.153317E+01		-4.611632E+02
-5.334917E+00		-1.729099E+02		1.782448E+02
-6.474236E+01		6.831959E+02		-6.184535E+02
-2.247006E+02		8.043200E+02		-5.796193E+02
7.401919E+01		-1.103263E+02		3.630712E+01
-3.969534E+02		-4.083377E+02		8.052910E+02
-4.459538E+02		8.227663E+02		-3.768124E+02
9.865195E+02		-3.082147E+02		-6.783048E+02
5.671207E+02		4.268084E+01		-6.098016E+02
-2.488621E+02		1.514502E+02		9.741191E+01
-4.261039E+02		6.389114E+02		-2.128074E+02
-1.708522E+01		1.346442E+02		-1.175590E+02
-1.679536E+02		-2.471308E+02		4.150845E+02
4.373746E+02		-3.656467E+02		-7.172793E+01
7.112273E+02		-4.519177E+02		-2.593096E+02
4.946354E+02		1.953982E+02		-6.900336E+02
-8.942422E+02		4.418251E+02		4.524171E+02
4.827950E+02		3.211517E+02		-8.039468E+02
9.951053E+02		-3.807102E+02		-6.143951E+02
-4.472595E+02		6.621758E+02		-2.149163E+02
-2.878500E+02		2.607402E+02		2.710978E+01
-2.552412E+02		-1.597186E+02		4.149598E+02
5.225059E+01		-2.382692E+02		1.860186E+02
1.030458E+03		-3.565900E+02		-6.738675E+02
5.325129E+02		-8.817008E+02		3.491879E+02
6.322641E+02		5.124468E+01		-6.835088E+02
-4.146357E+02		4.494845E+02		-3.484880E+01
5.062994E+02		-3.557335E+02		-1.505659E+02
-9.055840E+02		4.720909E+02		4.334931E+02
-4.532884E+02		7.348613E+02		-2.815729E+02
-2.059592E+02		3.640219E+02		-1.580627E+02
-4.937757E+02		2.291840E+02		2.645917E+02
9.981054E+02		-4.161083E+02		-5.819971E+02
1.337117E+02		-6.297432E+02		4.960315E+02
8.981162E+02		-1.201394E+02		-7.779769E+02
-4.201014E+01		-3.686644E+02		4.106746E+02
-4.314826E+02		7.540233E+02		-3.225407E+02
-4.576651E+02		5.133037E+02		-5.563859E+01
-3.976801E+02		8.485154E+02		-4.508353E+02
-2.643191E+02		1.057461E+02		1.585730E+02
-3.564341E+02		7.176590E+02		-3.612249E+02
-9.059307E+02		3.056017E+02		6.003290E+02
-4.580483E+02		7.634807E+02		-3.054324E+02
-2.068858E+02		4.479304E+02		-2.410446E+02
-9.217025E+02		4.925112E+02		4.291913E+02
5.072560E+02		-1.585155E+02		-3.487405E+02
1.010156E+03		-1.936589E+02		-8.164967E+02
-1.039339E+02		-3.018832E+02		4.058171E+02
-3.009410E+02		8.176157E+01		2.191794E+02
1.688980E+02		-6.668495E+02		4.979515E+02
-4.574648E+02		-1.147912E+02		5.722560E+02
2.397546E+02		5.767421E+02		-8.164967E+02
-6.000872E+02		-9.738930E+01		6.974765E+02
-4.826399E+02		5.986758E+02		-1.160359E+02
-4.960012E+02		4.323643E+02		6.363695E+01
-2.710246E+02		5.967254E+02		-3.257008E+02
-4.724099E+02		7.397564E+02		-2.673464E+02
3.521682E+01		-2.164482E+02		1.812314E+02
-2.536506E+02		1.252270E+02		1.284236E+02
-1.961489E+01		-1.451617E+02		1.647766E+02
2.560531E+01		-4.380461E+02		4.124408E+02
-8.022647E+02		5.139736E+01		7.508674E+02
4.665279E+02		3.499688E+02		-8.164967E+02
-3.822749E+02		7.343113E+02		-3.520364E+02
-4.699463E+02		6.947569E+02		-2.248106E+02
4.543237E+01		4.802461E+02		-5.256785E+02
2.237051E+01		4.526698E+02		-4.750403E+02
8.658646E+01		-1.875418E+02		1.009554E+02
5.063781E+02		-8.619040E+02		3.555259E+02
-2.736116E+02		2.259871E+02		4.762449E+01
-4.320682E+02		4.028542E+02		2.921396E+01
-9.123215E+01		2.728294E+02		-1.815973E+02
-1.522704E+02		4.542194E+02		-3.019490E+02
-3.281356E+02		8.444081E+02		-5.162725E+02
6.053387E+02		-3.642507E+02		-2.410880E+02
4.312129E+01		-8.160576E+01		3.848447E+01
-2.696117E+02		2.658909E+02		3.720808E+00
-3.840023E+02		4.236846E+02		-3.968231E+01
-4.514279E+02		7.994265E+02		-3.479986E+02
-3.524109E+02		8.484932E+02		-4.960823E+02
7.414758E+01		-1.400429E+02		6.589533E+01
-2.741025E+02		2.915839E+02		-1.748142E+01
-4.387900E+02		4.802957E+02		-4.150578E+01
4.755947E+02		1.451362E+02		-6.207309E+02
-9.056312E+02		3.689569E+02		5.366742E+02
1.881753E+01		5.723199E+02		-5.911374E+02
-3.944929E+02		-1.462859E+01		4.091215E+02
-2.589664E+00		-3.856154E+02		3.882051E+02
8.979664E+02		-4.898568E+02		-4.081096E+02
-2.240537E+01		1.645033E+02		-1.420979E+02
8.953269E+01		-1.552964E+02		6.576372E+01
-1.017673E+02		7.184148E+02		-6.166474E+02
4.067745E+02		-8.145134E+02		4.077389E+02
-8.897590E+02		2.283569E+02		6.614021E+02
-1.422082E+02		7.514111E+02		-6.092028E+02
4.592363E+02		1.207249E+02		-5.799612E+02
-4.941878E+02		2.026941E+02		2.914936E+02
-4.614887E+02		7.092147E+02		-2.477260E+02
-2.352842E+02		3.613502E+02		-1.260659E+02
7.571627E+02		-4.706512E+02		-2.865115E+02
4.884449E+02		-3.651730E+02		-1.232719E+02
5.998320E+02		5.287016E+01		-6.527021E+02
9.715560E+02		-2.312358E+02		-7.403202E+02
-1.418357E+02		-2.760368E+02		4.178725E+02
7.512057E+02		2.532156E+00		-7.537379E+02
-5.205054E+02		3.031181E+02		2.173873E+02
-2.359410E+02		3.323167E+02		-9.637567E+01
2.210106E+02		-7.087328E+02		4.877221E+02
3.335392E+02		-7.791639E+02		4.456247E+02
-9.030297E+02		3.894448E+02		5.135849E+02
-5.247688E+02		-1.163307E+02		6.410996E+02
-4.188908E+02		8.439263E+02		-4.250355E+02
-2.659099E+02		8.240037E+02		-5.580937E+02
4.277666E+02		8.849425E+01		-5.162608E+02
6.754644E+02		-4.318304E+02		-2.436339E+02
-4.917346E+02		-1.188067E+02		6.105413E+02
6.682188E+01		-2.647532E+02		1.979313E+02
7.188799E+02		2.072153E+01		-7.396015E+02
9.259643E+02		-4.882494E+02		-4.377150E+02
-7.709021E+02		9.323020E+00		7.615791E+02
3.752304E+00		5.981926E+02		-6.019449E+02
-2.950049E+02		6.500641E+02		-3.550592E+02
-2.553099E+02		1.879515E+02		6.735838E+01
-9.074845E+02		3.477658E+02		5.597187E+02
2.900769E+02		-7.546619E+02		4.645849E+02
7.869924E+02		-4.793408E+02		-3.076516E+02
4.215955E+02		-1.703931E+00		-4.198916E+02
-4.799306E+02		6.710815E+02		-1.911509E+02
-2.609791E+02		3.476208E+02		-8.664164E+01
-8.997856E+02		2.672568E+02		6.325288E+02
5.225402E+02		-2.000839E+02		-3.224564E+02
5.962800E+01		-1.079307E+02		4.830267E+01
-3.760869E+02		8.503690E+02		-4.742821E+02
2.559325E+02		-7.330600E+02		4.771275E+02
-1.792271E+02		4.630892E+02		-2.838621E+02
-8.966410E+02		4.192165E+02		4.774245E+02
-5.417110E+02		3.507307E+02		1.909802E+02
4.100703E+02		7.351283E+01		-4.835831E+02
4.516758E+01		5.032455E+02		-5.484131E+02
-4.202287E+02		7.507223E+02		-3.304937E+02
-5.010743E-01		4.549064E+02		-4.544053E+02
5.214368E+02		-3.421217E+02		-1.793151E+02
3.442679E+02		-3.172858E+02		-2.698212E+01
2.891524E+02		-2.416390E+02		-4.751340E+01
9.594780E+02		-1.834540E+02		-7.760240E+02
-2.052567E+02		3.373560E+02		-1.320993E+02
-1.762426E+01		1.107044E+02		-9.308013E+01
LINES 279 837
2		0		72
2		1		227
2		2		196
2		3		218
2		4		68
2		5		281
2		6		127
2		7		284
2		8		50
2		9		135
2		10		200
2		11		228
2		12		277
2		13		101
2		14		195
2		15		237
2		16		151
2		17		213
2		18		113
2		19		37
2		20		149
2		21		215
2		22		188
2		23		86
2		24		217
2		25		200
2		26		72
2		26		139
2		26		153
2		27		78
2		28		31
2		28		64
2		29		196
2		29		262
2		30		36
2		30		34
2		31		227
2		32		201
2		32		110
2		33		205
2		33		197
2		34		105
2		35		99
2		35		63
2		36		161
2		37		217
2		38		186
2		38		111
2		39		140
2		39		109
2		40		280
2		40		183
2		40		219
2		41		245
2		41		94
2		42		198
2		42		113
2		43		159
2		43		148
2		44		267
2		44		112
2		45		254
2		45		236
2		46		94
2		46		95
2		47		193
2		47		251
2		48		137
2		48		107
2		49		146
2		50		125
2		51		246
2		51		172
2		52		148
2		52		243
2		53		285
2		53		187
2		53		90
2		54		154
2		54		80
2		55		86
2		55		174
2		56		171
2		56		100
2		57		122
2		57		90
2		58		129
2		58		66
2		59		211
2		59		195
2		60		268
2		60		134
2		61		253
2		61		214
2		62		206
2		62		207
2		63		229
2		64		191
2		65		224
2		65		156
2		66		282
2		67		97
2		67		164
2		68		192
2		69		257
2		69		81
2		70		121
2		70		158
2		71		133
2		71		233
2		73		129
2		73		271
2		74		279
2		74		226
2		75		162
2		75		135
2		76		118
2		76		136
2		77		222
2		77		269
2		77		247
2		78		164
2		79		189
2		79		180
2		80		283
2		81		85
2		82		228
2		82		92
2		83		261
2		83		143
2		84		228
2		84		201
2		85		103
2		87		246
2		87		277
2		88		114
2		88		108
2		89		235
2		89		144
2		91		175
2		91		285
2		92		103
2		93		156
2		93		121
2		95		175
2		96		137
2		96		138
2		97		122
2		98		285
2		98		243
2		99		266
2		100		184
2		101		189
2		102		258
2		102		166
2		104		188
2		104		176
2		105		211
2		106		260
2		106		137
2		108		110
2		109		202
2		111		112
2		113		115
2		113		208
2		114		174
2		115		221
2		116		287
2		117		194
2		117		178
2		118		230
2		119		267
2		119		141
2		120		171
2		120		132
2		120		286
2		123		241
2		123		154
2		124		233
2		124		249
2		125		146
2		126		248
2		126		190
2		128		262
2		128		181
2		130		283
2		130		284
2		131		215
2		131		255
2		132		212
2		133		209
2		134		194
2		136		212
2		138		193
2		139		162
2		140		234
2		141		278
2		142		200
2		142		198
2		143		232
2		144		253
2		145		231
2		145		216
2		147		252
2		147		219
2		149		242
2		150		263
2		150		199
2		151		160
2		152		287
2		152		230
2		153		244
2		155		255
2		155		240
2		157		276
2		157		169
2		158		203
2		159		173
2		160		205
2		161		210
2		163		257
2		163		198
2		165		209
2		166		242
2		167		218
2		167		223
2		168		282
2		168		241
2		169		185
2		170		238
2		170		177
2		171		239
2		172		237
2		174		190
2		176		228
2		177		280
2		178		223
2		179		273
2		179		252
2		180		199
2		181		204
2		182		264
2		182		270
2		183		197
2		184		275
2		186		271
2		188		244
2		191		256
2		202		260
2		204		280
2		205		238
2		205		268
2		206		279
2		207		281
2		208		231
2		210		263
2		213		275
2		214		220
2		216		272
2		217		222
2		220		273
2		221		272
2		224		236
2		225		264
2		225		250
2		226		261
2		229		259
2		232		235
2		234		270
2		239		269
2		240		266
2		245		258
2		247		286
2		248		274
2		249		265
2		250		276
2		251		256
2		254		278
2		265		274
POINT_DATA 288
scalars NodeType integer
LOOKUP_TABLE default
7
7
7
7
7
7
7
7
7
7
7
7
7
7
7
7
7
7
7
7
7
7
7
7
7
7
0
8
0
0
0
0
0
0
0
0
0
0
0
0
0
0
0
0
0
0
0
0
0
8
0
0
0
0
0
0
0
0
0
0
0
0
0
0
0
0
0
0
0
0
0
0
0
0
0
0
0
0
0
0
0
0
0
0
0
0
0
0
0
0
0
0
0
0
0
0
0
0
0
0
0
0
0
0
0
0
0
8
0
0
0
0
0
0
0
0
9
0
0
0
0
0
0
0
0
0
0
9
0
0
0
0
0
0
0
0
0
0
0
0
0
0
0
0
0
0
0
0
0
0
0
0
0
0
0
0
0
0
0
0
0
0
0
0
0
8
0
0
0
0
0
0
0
8
0
0
0
0
0
0
0
0
0
0
0
8
0
8
0
0
0
0
8
0
0
0
0
0
0
0
0
0
0
8
0
0
0
0
0
0
0
0
0
0
0
0
9
0
0
0
0
0
0
0
0
0
0
0
0
0
0
0
0
0
0
0
0
0
0
0
0
0
0
0
0
0
0
0
0
0
0
0
0
0
0
0
0
0
0
8
0
0
0
0
0
0
0
0
0
0
0
0
0
0
0
0
0
0
0
0
0
0
0
0
0
0
0
0
CELL_DATA 279
SCALARS SlipSystem integer
LOOKUP_TABLE default
3
3
3
3
1
1
1
1
2
2
2
2
2
2
2
2
1
1
3
3
2
2
2
2
1
1
3
2
1
2
3
3
3
3
2
2
3
3
3
3
3
2
2
2
2
3
1
1
1
1
2
3
1
2
2
1
1
1
1
1
1
1
1
2
2
3
3
2
2
2
2
2
2
1
1
3
1
2
1
1
2
2
1
1
2
2
1
1
2
2
3
3
1
1
1
1
2
3
1
1
1
2
2
1
2
2
1
1
1
1
1
1
1
1
2
2
3
3
13
3
1
2
2
2
1
2
2
2
1
1
3
3
2
2
2
3
3
1
1
2
2
2
1
1
2
3
3
2
1
1
2
1
2
2
2
3
3
2
1
1
3
1
1
1
3
3
1
3
3
3
3
1
1
2
3
1
1
1
1
1
2
1
1
3
3
1
1
2
2
3
1
3
3
3
2
1
1
3
3
1
1
3
3
1
1
2
2
2
1
3
3
1
2
2
1
1
1
1
1
2
2
2
1
2
3
3
1
1
1
1
1
3
2
1
3
1
3
1
1
2
3
1
1
3
1
1
1
3
1
3
1
3
1
1
3
2
1
1
1
13
1
1
1
1
1
1
2
1
1
3
2
2
1
1
1
1
3
1
1
