# vtk DataFile Version 1.0
dislocation microstructure
ASCII
DATASET POLYDATA
POINTS 235 float
-1.407136E+02		-2.213016E+02		3.620151E+02
-4.069171E+02		1.959506E+01		3.873221E+02
-2.678171E+02		5.735064E+02		-3.056893E+02
-3.585793E+02		4.159045E+02		-5.732522E+01
2.435975E+02		5.088909E+02		-7.524885E+02
-3.645297E+01		4.790810E+02		-4.426281E+02
1.137360E+01		4.804267E+01		-5.941627E+01
2.977420E+02		-2.208350E+02		-7.690702E+01
-3.705953E+02		-3.364613E+02		7.070566E+02
-2.633774E+02		-5.962946E+01		3.230069E+02
-5.059046E+01		-1.177741E+02		1.683646E+02
-3.709113E+00		-3.770962E+02		3.808053E+02
-5.645235E+02		3.793574E+02		1.851661E+02
-3.703694E+02		9.044315E+01		2.799262E+02
-5.304416E+02		4.354699E+02		9.497178E+01
-5.136564E+02		1.737037E+02		3.399526E+02
-4.002894E+02		6.227393E+02		-2.224499E+02
-1.296146E+02		4.379697E+02		-3.083551E+02
3.132033E+01		-1.863970E+02		1.550767E+02
-2.594066E+02		2.052232E+02		5.418340E+01
5.559540E+02		2.224913E+01		-5.782031E+02
6.021915E+02		-3.324134E+02		-2.697781E+02
-9.943729E+01		-2.899623E+02		3.893996E+02
3.188077E+01		-5.505567E+02		5.186760E+02
-2.457631E+02		2.346175E+02		1.114560E+01
-1.949524E+01		-1.452330E+02		1.647282E+02
-1.564172E+02		-8.257520E+01		2.389924E+02
4.616375E+02		1.743773E+02		-6.360148E+02
-1.353242E+02		-1.350827E+02		2.704068E+02
-1.271256E+02		-1.922853E+02		3.194109E+02
-2.554789E+02		8.039371E+01		1.750852E+02
-4.293821E+02		2.507339E+01		4.043087E+02
-4.122626E+02		5.758482E+02		-1.635855E+02
-3.618553E+02		6.156744E+02		-2.538192E+02
-3.061643E+02		2.417674E+02		6.439691E+01
-4.096061E+02		4.957297E+02		-8.612355E+01
-3.902378E+02		4.490709E+02		-5.883308E+01
4.479213E+02		1.606445E+02		-6.085658E+02
3.980340E+02		8.412381E-01		-3.988753E+02
5.175268E+02		-3.073861E+02		-2.101406E+02
4.350607E+02		-5.136150E+01		-3.836992E+02
3.191778E+02		1.066169E+02		-4.257947E+02
5.050105E+02		-1.894949E+02		-3.155156E+02
-4.964047E+02		8.808144E+02		-3.844098E+02
4.526136E+02		-7.915829E+01		-3.734553E+02
5.211216E+02		-2.831737E+02		-2.379479E+02
-4.975342E+02		-7.509646E+01		5.726307E+02
-5.011541E+02		-1.793422E+02		6.804964E+02
-4.618006E+02		-2.728038E+02		7.346043E+02
-4.117760E+02		-3.179566E+02		7.297326E+02
-4.695461E+02		3.059377E-01		4.692401E+02
4.944355E+02		-1.611555E+02		-3.332800E+02
4.751699E+02		-1.195018E+02		-3.556681E+02
1.318603E+02		-2.969160E+02		1.650557E+02
-4.784267E+02		-2.468730E+02		7.252998E+02
7.580659E+02		-2.594752E+02		-4.985906E+02
1.462194E+02		-4.018283E+02		2.556089E+02
1.397872E+02		-4.577066E+02		3.179194E+02
-5.308576E+02		3.638377E+02		1.670198E+02
-2.669220E+02		1.819832E+02		8.493883E+01
-2.847299E+02		1.066635E+02		1.780664E+02
-3.149028E+02		1.159945E+02		1.989084E+02
-4.096507E+02		4.088113E+02		8.393916E-01
-4.892647E+02		4.391215E+02		5.014322E+01
-4.487447E+02		2.098755E+02		2.388692E+02
-4.770492E+02		1.775443E+02		2.995048E+02
7.578376E+02		-2.041220E+02		-5.537156E+02
-2.856531E+02		8.171141E+02		-5.314611E+02
-5.367773E+02		8.694040E+02		-3.326268E+02
-5.297225E+01		6.198835E+02		-5.669112E+02
3.932685E+02		-3.430742E+02		-5.019434E+01
-1.862672E+02		-8.421259E+01		2.704798E+02
-2.934119E+02		6.003079E+02		-3.068961E+02
1.467105E+02		-3.780347E+02		2.313242E+02
5.088543E+02		-3.293702E+02		-1.794841E+02
-1.157835E+02		1.703964E+02		-5.461292E+01
-1.966882E+02		2.179993E+02		-2.131111E+01
-2.409900E+02		2.239216E+02		1.706842E+01
7.596534E+02		-2.323558E+02		-5.272976E+02
7.246077E+02		-9.871987E+01		-6.258878E+02
6.376030E+02		-3.558165E+00		-6.340448E+02
7.244363E+02		-3.309103E+02		-3.935261E+02
6.677381E+02		-3.525523E+02		-3.151858E+02
-1.677183E+02		4.337641E+02		-2.660459E+02
-2.193401E+01		-3.399336E+02		3.618676E+02
-6.080466E+01		-3.073633E+02		3.681679E+02
1.092024E+02		-5.308257E+02		4.216232E+02
7.010924E+01		-5.524391E+02		4.823299E+02
-4.596782E+02		1.907683E+02		2.689099E+02
1.462273E+02		-2.713588E+02		1.251315E+02
-1.815292E+02		4.185993E+02		-2.370701E+02
-3.751553E+02		3.872964E+02		-1.214104E+01
4.838505E+01		-8.627521E+01		3.789016E+01
-9.006442E+00		4.716414E+02		-4.626350E+02
3.605092E+00		5.159830E+02		-5.195881E+02
-4.463324E+02		2.551330E+02		1.911993E+02
-4.625259E+02		2.967007E+02		1.658252E+02
-3.236761E+02		2.661799E+02		5.749618E+01
-3.634617E+02		3.478665E+02		1.559519E+01
-3.944508E+02		6.038167E+02		-2.093659E+02
-4.159229E+02		5.377548E+02		-1.218319E+02
1.522699E+02		-2.170072E+02		6.473735E+01
3.760334E+02		1.241266E+02		-5.001600E+02
-2.090004E+02		2.864447E+01		1.803559E+02
3.788153E+02		2.592819E+01		-4.047435E+02
-5.033818E+02		-1.206210E+02		6.240028E+02
-4.871950E+02		-3.547744E+01		5.226724E+02
-5.038972E+02		-1.474188E+02		6.513160E+02
-4.910103E+02		-2.200344E+02		7.110447E+02
-4.534124E+02		1.664372E+01		4.367687E+02
-4.797722E+02		-1.713241E+01		4.969047E+02
1.217121E+02		-2.814572E+02		1.597450E+02
1.452321E+02		-3.516249E+02		2.063928E+02
-2.690709E+02		1.397722E+02		1.292987E+02
-3.762694E+02		4.088977E+02		-3.262831E+01
-2.529063E+02		4.347514E+02		-1.818451E+02
-1.518719E+02		7.220868E+02		-5.702149E+02
-6.423426E+01		1.157374E+02		-5.150311E+01
4.331494E+01		-8.159796E+01		3.828301E+01
-4.485424E+01		8.151242E+01		-3.665819E+01
1.249879E+02		-1.567092E+02		3.172134E+01
-1.528473E+02		1.971432E+02		-4.429586E+01
-8.624988E+01		1.425923E+02		-5.634238E+01
7.525961E+02		-1.739334E+02		-5.786626E+02
7.524752E+02		-2.854110E+02		-4.670642E+02
3.635242E+02		-3.257851E+02		-3.773911E+01
1.301208E+02		-4.950390E+02		3.649183E+02
-3.279658E+02		6.158638E+02		-2.878981E+02
4.009701E+00		6.862051E+01		-7.263021E+01
-5.010682E+02		-9.685920E+01		5.979274E+02
-4.929530E+02		-5.474796E+01		5.477010E+02
-3.608989E+02		8.539199E+02		-4.930210E+02
5.901821E+02		1.934949E+01		-6.095316E+02
6.919783E+02		-5.085574E+01		-6.411226E+02
-4.413651E+02		1.327288E+02		3.086362E+02
-1.826391E+02		7.473895E+02		-5.647504E+02
-2.364630E+02		-7.399827E+01		3.104613E+02
6.326085E+02		-3.477268E+02		-2.848816E+02
6.993469E+02		-3.463361E+02		-3.530109E+02
4.907973E+02		2.362982E+02		-7.270955E+02
2.379895E+02		5.785071E+02		-8.164967E+02
6.485512E+01		-2.534320E+02		1.885769E+02
3.936190E+01		-2.356612E+02		1.962993E+02
-3.876619E+02		8.639592E+02		-4.762972E+02
-4.566363E+02		6.128004E+02		-1.561641E+02
-2.701648E+01		5.832067E+02		-5.561902E+02
-4.980336E+02		3.394405E+02		1.585932E+02
5.681934E+01		-1.203697E+02		6.355040E+01
-4.378393E+02		-2.982376E+02		7.360769E+02
-2.313944E+02		5.533718E+01		1.760572E+02
-2.774434E+02		1.181437E+02		1.592996E+02
-5.833502E+00		5.438944E+02		-5.380609E+02
3.135886E+02		-2.789157E+02		-3.467295E+01
7.416528E+02		-3.098942E+02		-4.317586E+02
3.354055E+02		-3.030471E+02		-3.235842E+01
7.426814E+02		-1.396856E+02		-6.029959E+02
-5.118194E+02		4.402725E+02		7.154693E+01
-2.445498E+02		7.919090E+02		-5.473592E+02
3.430652E+02		7.066106E+01		-4.137263E+02
4.163314E+02		-2.409387E+01		-3.922376E+02
-1.007431E+02		6.742226E+02		-5.734794E+02
4.103508E+02		1.368077E+02		-5.471585E+02
-5.605904E+02		7.401249E+02		-1.795345E+02
-1.969107E+01		-1.451761E+02		1.648671E+02
-2.095226E+02		-8.144190E+01		2.909645E+02
4.805810E+02		3.265104E+02		-8.070914E+02
-2.130075E+02		7.702315E+02		-5.572240E+02
-4.320522E+02		5.997084E+02		-1.676562E+02
4.628806E+02		-3.578413E+02		-1.050393E+02
1.438483E+02		-4.297451E+02		2.858968E+02
-2.806971E+02		2.123621E+02		6.833505E+01
-4.558576E+02		8.801832E+02		-4.243256E+02
-5.444599E+02		7.074334E+02		-1.629735E+02
3.443766E+02		1.157330E+02		-4.601096E+02
-3.335671E+02		8.420067E+02		-5.084396E+02
9.976807E+01		-1.247171E+02		2.494901E+01
5.132277E+02		-2.172391E+02		-2.959886E+02
1.361567E+02		-4.746261E+02		3.384693E+02
-1.282399E+02		-1.643239E+02		2.925637E+02
-5.172715E+02		8.763700E+02		-3.590985E+02
-3.390262E+02		4.321970E+02		-9.317080E+01
-4.504952E+02		4.278883E+02		2.260688E+01
4.453878E+01		-1.738735E+02		1.293347E+02
-3.385738E+02		1.151033E+02		2.234705E+02
4.736338E+02		1.901632E+02		-6.637970E+02
-2.670128E+02		1.601554E+02		1.068573E+02
-3.191935E+02		4.376425E+02		-1.184491E+02
-1.888414E+02		4.263986E-01		1.884150E+02
-5.728674E+02		8.170706E+02		-2.442033E+02
-5.234373E+02		6.760178E+02		-1.525806E+02
2.961310E+02		-2.511447E+02		-4.498629E+01
4.919563E+02		2.573890E+02		-7.493453E+02
-9.461114E+00		-1.738219E+02		1.832830E+02
5.437185E+00		4.890925E+02		-4.945297E+02
-3.685425E+02		9.951830E+01		2.690242E+02
7.637093E+01		-1.048126E+02		2.844163E+01
-4.497975E+02		5.019314E+01		3.996044E+02
2.235281E+02		5.540924E+02		-7.776205E+02
4.919636E+02		2.792543E+02		-7.712179E+02
1.557365E+02		-2.441676E+02		8.843104E+01
-3.453471E+02		3.046715E+02		4.067556E+01
4.710545E+02		3.454422E+02		-8.164967E+02
-2.114832E+02		4.255697E+02		-2.140865E+02
9.210005E+01		-5.442878E+02		4.521877E+02
1.214751E+02		-5.140399E+02		3.925648E+02
-3.628174E+02		4.191689E+02		-5.635153E+01
4.866615E+02		3.027844E+02		-7.894459E+02
-4.641449E+02		8.415602E+01		3.799889E+02
9.173008E+00		-2.036452E+02		1.944722E+02
-4.039204E+02		5.927638E+02		-1.888434E+02
-4.924335E+02		6.412637E+02		-1.488302E+02
-4.216401E+02		8.739329E+02		-4.522928E+02
5.309981E+01		-1.589302E+02		1.058304E+02
1.430076E+02		-1.894654E+02		4.645783E+01
-5.607762E+02		8.484778E+02		-2.877017E+02
-1.456148E+02		-1.076922E+02		2.533070E+02
-2.859629E+02		4.387692E+02		-1.528063E+02
5.196390E+02		-2.502097E+02		-2.694294E+02
-3.986491E+02		1.228096E+02		2.758395E+02
-5.720843E+02		7.798648E+02		-2.077805E+02
-1.671434E+02		-3.866316E+01		2.058066E+02
-2.503022E+02		2.061003E+02		4.420190E+01
1.410835E+02		-3.259690E+02		1.848855E+02
-1.258541E+02		6.987470E+02		-5.728929E+02
4.300442E+02		1.475895E+02		-5.776337E+02
-7.655959E+01		6.482480E+02		-5.716884E+02
4.900828E+02		-3.486641E+02		-1.414187E+02
4.841194E+02		2.113168E+02		-6.954362E+02
4.293803E+02		-3.556567E+02		-7.372359E+01
6.654449E+02		-2.457400E+01		-6.408709E+02
-3.572304E+02		1.097375E+02		2.474928E+02
9.041068E+01		-2.678867E+02		1.774761E+02
-4.447177E+02		2.304229E+02		2.142948E+02
-4.636293E+02		1.151496E+02		3.484797E+02
5.733768E+01		-1.413738E+02		8.403614E+01
LINES 226 678
2		0		29
2		1		31
2		2		72
2		3		205
2		4		197
2		5		93
2		6		128
2		7		190
2		8		49
2		9		136
2		10		163
2		11		84
2		12		58
2		13		194
2		14		156
2		15		65
2		16		209
2		17		83
2		18		182
2		19		221
2		20		132
2		21		137
2		22		85
2		23		87
2		24		221
2		25		163
2		26		215
2		26		220
2		26		71
2		27		184
2		27		37
2		28		178
2		28		215
2		29		178
2		30		149
2		30		60
2		31		109
2		31		196
2		32		99
2		32		100
2		33		99
2		33		127
2		34		170
2		34		97
2		35		100
2		35		36
2		36		205
2		37		224
2		38		159
2		38		104
2		39		74
2		39		45
2		40		159
2		40		44
2		41		158
2		41		173
2		42		176
2		42		51
2		43		171
2		43		179
2		44		52
2		45		217
2		46		129
2		46		130
2		47		107
2		47		108
2		48		148
2		48		54
2		49		148
2		50		109
2		50		110
2		51		52
2		53		222
2		53		111
2		54		108
2		55		124
2		55		78
2		56		169
2		56		73
2		57		169
2		57		177
2		58		146
2		59		170
2		59		185
2		60		61
2		60		150
2		61		183
2		62		91
2		62		181
2		63		181
2		63		156
2		64		88
2		64		232
2		65		88
2		66		123
2		66		78
2		67		174
2		67		157
2		68		179
2		68		214
2		69		145
2		69		225
2		70		228
2		70		125
2		71		164
2		72		127
2		73		112
2		74		226
2		75		121
2		75		122
2		76		121
2		76		77
2		77		221
2		79		133
2		79		155
2		80		132
2		80		229
2		81		138
2		81		153
2		82		138
2		82		137
2		83		90
2		84		85
2		86		203
2		86		204
2		87		203
2		89		199
2		89		111
2		90		202
2		91		98
2		91		114
2		92		118
2		92		147
2		92		195
2		93		193
2		94		151
2		94		193
2		95		232
2		95		96
2		96		146
2		97		200
2		98		200
2		101		213
2		101		199
2		102		161
2		102		173
2		103		187
2		103		149
2		104		158
2		105		107
2		105		129
2		106		110
2		106		130
2		111		231
2		112		222
2		113		150
2		113		185
2		114		205
2		115		202
2		115		216
2		116		135
2		116		223
2		117		122
2		117		119
2		120		213
2		120		175
2		123		155
2		124		153
2		125		154
2		126		204
2		126		177
2		131		174
2		131		143
2		133		229
2		134		233
2		134		218
2		135		166
2		136		164
2		139		227
2		139		191
2		140		197
2		141		231
2		141		142
2		142		208
2		143		211
2		144		167
2		144		210
2		145		151
2		147		234
2		152		190
2		152		154
2		157		166
2		160		223
2		160		225
2		161		224
2		162		219
2		162		172
2		163		192
2		165		201
2		165		206
2		167		209
2		168		228
2		168		226
2		170		221
2		171		211
2		172		189
2		175		195
2		176		217
2		180		186
2		180		205
2		182		212
2		183		230
2		184		227
2		186		216
2		187		220
2		188		214
2		188		219
2		189		210
2		191		198
2		192		208
2		194		230
2		194		218
2		196		207
2		198		206
2		207		233
2		212		234
POINT_DATA 235
scalars NodeType integer
LOOKUP_TABLE default
7
7
7
7
7
7
7
7
7
7
7
7
7
7
7
7
7
7
7
7
7
7
7
7
7
7
0
0
0
0
0
0
0
0
0
0
0
0
0
0
0
0
0
0
0
0
0
0
0
0
0
0
0
0
0
0
0
0
0
0
0
0
0
0
0
0
0
0
0
0
0
0
0
0
0
0
0
0
0
0
0
0
0
0
0
0
0
0
0
0
0
0
0
0
0
0
0
0
0
0
0
0
0
0
0
0
0
0
0
0
0
0
0
0
0
0
0
0
9
9
0
0
0
0
0
0
0
0
9
0
0
0
0
0
0
0
0
0
0
0
8
0
0
0
0
0
0
0
0
0
0
0
0
0
0
0
0
0
0
0
0
0
0
0
0
0
0
0
0
0
0
0
0
0
0
0
0
0
0
0
0
0
0
0
0
0
0
0
0
0
0
0
0
0
0
0
0
0
0
0
0
8
0
0
0
0
0
0
0
0
0
0
0
0
0
0
0
0
0
0
0
0
0
0
0
0
0
0
0
0
0
0
0
0
0
CELL_DATA 226
SCALARS SlipSystem integer
LOOKUP_TABLE default
3
3
3
3
1
1
1
1
2
2
2
2
2
2
2
2
1
1
3
3
2
2
2
2
1
1
3
1
2
1
1
3
3
3
1
1
2
1
3
3
3
3
3
3
3
3
3
1
1
1
1
1
1
1
1
1
1
1
1
1
1
1
2
2
2
2
2
2
2
2
2
1
2
2
2
2
2
2
2
2
2
2
2
2
3
2
3
2
2
2
2
2
2
2
2
2
1
1
1
1
1
1
1
1
2
3
2
1
3
3
3
3
3
2
2
2
2
2
2
2
2
1
2
2
2
2
1
1
1
3
1
13
3
1
1
1
1
2
2
2
3
3
1
1
1
1
1
1
1
2
2
2
2
3
2
2
2
1
1
1
1
1
3
3
1
1
2
2
1
2
2
1
1
2
1
1
1
2
1
1
1
3
3
3
1
1
1
1
3
1
1
1
1
1
1
1
1
3
1
1
1
1
1
1
1
1
1
1
1
1
3
3
1
1
1
1
1
1
1
3
3
1
1
1
1
3
