# vtk DataFile Version 1.0
dislocation microstructure
ASCII
DATASET POLYDATA
POINTS 266 float
-1.407136E+02		-2.213016E+02		3.620151E+02
-4.069171E+02		1.959506E+01		3.873221E+02
-2.678171E+02		5.735064E+02		-3.056893E+02
-3.585793E+02		4.159045E+02		-5.732522E+01
2.435975E+02		5.088909E+02		-7.524885E+02
-3.645297E+01		4.790810E+02		-4.426281E+02
1.137360E+01		4.804267E+01		-5.941627E+01
2.977420E+02		-2.208350E+02		-7.690702E+01
-3.705953E+02		-3.364613E+02		7.070566E+02
-2.633774E+02		-5.962946E+01		3.230069E+02
-5.059046E+01		-1.177741E+02		1.683646E+02
-3.709113E+00		-3.770962E+02		3.808053E+02
-5.645235E+02		3.793574E+02		1.851661E+02
-3.703694E+02		9.044315E+01		2.799262E+02
-5.304416E+02		4.354699E+02		9.497178E+01
-5.136564E+02		1.737037E+02		3.399526E+02
-4.002894E+02		6.227393E+02		-2.224499E+02
-1.296146E+02		4.379697E+02		-3.083551E+02
3.132033E+01		-1.863970E+02		1.550767E+02
-2.594066E+02		2.052232E+02		5.418340E+01
5.559540E+02		2.224913E+01		-5.782031E+02
6.021915E+02		-3.324134E+02		-2.697781E+02
-9.943729E+01		-2.899623E+02		3.893996E+02
3.188077E+01		-5.505567E+02		5.186760E+02
-2.457631E+02		2.346175E+02		1.114560E+01
-1.949524E+01		-1.452330E+02		1.647282E+02
-8.944533E+01		-1.532442E+02		2.426895E+02
6.198432E+02		3.657055E+01		-6.564137E+02
-8.971265E+01		-1.549353E+02		2.446480E+02
-1.085017E+02		-2.099024E+02		3.184041E+02
-1.827477E+02		1.493485E+02		3.339925E+01
-4.469778E+02		2.046816E+00		4.449310E+02
1.364158E+02		-3.602868E+02		2.238710E+02
-3.683577E+02		6.274387E+02		-2.590809E+02
-3.635854E+02		2.257926E+02		1.377928E+02
-2.840855E+02		5.735940E+02		-2.895085E+02
-4.098723E+02		2.315696E+02		1.783027E+02
7.512186E+02		-5.487697E+01		-6.963416E+02
-5.010441E+02		4.877448E+02		1.329929E+01
1.290487E+02		5.861974E+02		-7.152461E+02
-1.209210E+02		-1.442381E+02		2.651591E+02
5.878291E+02		-5.182974E+01		-5.359993E+02
-5.360781E+01		-1.122591E+02		1.658669E+02
6.489306E+02		-2.204994E+02		-4.284312E+02
2.248225E+02		-1.321054E+02		-9.271716E+01
5.970203E+02		-7.923953E+01		-5.177807E+02
6.481122E+02		1.210453E+02		-7.691575E+02
-5.605160E+02		-3.305478E+01		5.935708E+02
-5.633860E+02		-1.593516E+02		7.227376E+02
-4.811492E+02		-2.904091E+02		7.715583E+02
-4.095039E+02		-3.312648E+02		7.407686E+02
-5.113197E+02		2.036553E+02		3.076644E+02
6.358396E+02		-1.800738E+02		-4.557658E+02
6.153958E+02		-1.255535E+02		-4.898423E+02
-3.012554E+02		9.646104E+02		-6.633550E+02
-5.149332E+02		-2.565532E+02		7.714865E+02
8.243981E+02		-3.021202E+02		-5.222779E+02
2.150095E+02		-4.378587E+02		2.228492E+02
2.038085E+02		-5.005899E+02		2.967814E+02
-5.305981E+02		3.688718E+02		1.617262E+02
-3.848122E+02		5.747638E+02		-1.899516E+02
1.688405E+01		4.166109E+02		-4.334949E+02
-2.510203E+01		4.561517E+02		-4.310497E+02
-5.303615E+02		5.365576E+02		-6.196038E+00
-4.709920E+02		4.278263E+02		4.316576E+01
-3.853797E+02		2.114402E+02		1.739395E+02
-4.901449E+02		4.609968E+02		2.914814E+01
8.299304E+02		-2.343110E+02		-5.956194E+02
-2.684772E+02		9.443082E+02		-6.758310E+02
-4.423085E+02		3.789021E+02		6.340645E+01
4.928236E+01		6.555331E+02		-7.048155E+02
3.845583E+02		-4.506157E+02		6.605747E+01
-1.744881E+02		-1.257094E+02		3.001975E+02
-2.880748E+02		6.087160E+02		-3.206412E+02
-1.574100E+02		4.972163E+02		-3.398063E+02
6.508771E+02		-4.557009E+02		-1.951762E+02
-1.001428E+02		1.936908E+02		-9.354802E+01
-2.052365E+02		2.450941E+02		-3.985757E+01
6.628353E+02		-2.860487E+02		-3.767866E+02
8.299993E+02		-2.695930E+02		-5.604064E+02
7.791084E+02		-9.192357E+01		-6.871849E+02
6.385801E+02		3.337381E+01		-6.719539E+02
7.660687E+02		-3.786988E+02		-3.873699E+02
6.871588E+02		-3.956736E+02		-2.914852E+02
-1.777269E+02		5.195019E+02		-3.417750E+02
-1.954642E+01		-3.404142E+02		3.599606E+02
-5.997245E+01		-3.066676E+02		3.666400E+02
1.393400E+02		-5.663247E+02		4.269847E+02
7.589725E+01		-5.693451E+02		4.934479E+02
-4.793354E+02		2.339741E+02		2.453614E+02
2.541437E+02		-4.058725E+02		1.517288E+02
-2.214936E+02		5.494505E+02		-3.279569E+02
1.044718E+02		5.590851E+02		-6.635569E+02
4.350327E+01		-8.158974E+01		3.808647E+01
-6.366952E+00		4.345676E+02		-4.282007E+02
1.289488E+02		4.626058E+02		-5.915546E+02
-4.331382E+02		2.546828E+02		1.784555E+02
-4.467286E+02		2.979265E+02		1.488021E+02
-3.756670E+02		2.559529E+02		1.197141E+02
-4.264815E+02		3.503399E+02		7.614163E+01
-5.000717E+02		2.183106E+02		2.817611E+02
1.779408E+02		5.289798E+02		-7.069206E+02
-5.021828E+02		4.594734E+02		4.270945E+01
-3.550981E+02		1.009780E+02		2.541201E+02
-1.166190E+02		5.858413E+01		5.803490E+01
1.151151E+02		-3.490496E+01		-8.021014E+01
-5.704836E+02		-8.500526E+01		6.554888E+02
-5.363993E+02		5.403901E+00		5.309954E+02
-5.700642E+02		-1.182123E+02		6.882765E+02
-5.417433E+02		-2.161012E+02		7.578445E+02
2.089645E+02		-4.041074E+02		1.951430E+02
-5.161722E+02		1.741299E+01		4.987592E+02
1.700173E+02		-3.796651E+02		2.096478E+02
1.254240E+02		4.927777E+02		-6.182017E+02
-5.857419E+02		5.942288E+02		-8.486819E+00
1.076380E+02		6.824275E+02		-7.900655E+02
-3.092322E+02		5.814028E+02		-2.721707E+02
-9.053941E+01		8.107804E+02		-7.202410E+02
-4.958144E+01		1.157305E+02		-6.614909E+01
-4.139992E+02		5.346489E+02		-1.206497E+02
-4.345309E+01		8.159199E+01		-3.813890E+01
2.006434E+02		-1.093213E+02		-9.132217E+01
-1.488129E+02		2.310133E+02		-8.220043E+01
-6.750853E+01		1.525911E+02		-8.508259E+01
8.237338E+02		-1.947631E+02		-6.289707E+02
8.125756E+02		-3.319046E+02		-4.806710E+02
3.293252E+02		-4.195781E+02		9.025284E+01
1.810960E+02		-5.384336E+02		3.573376E+02
-3.334808E+02		6.375851E+02		-3.041043E+02
3.621605E+00		6.883028E+01		-7.245189E+01
-5.670789E+02		-5.718930E+01		6.242682E+02
-5.505885E+02		-1.205111E+01		5.626396E+02
-3.600940E+02		1.003127E+03		-6.430333E+02
5.924075E+02		2.227199E+01		-6.146795E+02
7.188154E+02		-2.186407E+01		-6.969514E+02
4.212477E+02		-4.693038E+02		4.805608E+01
-1.313950E+02		8.461683E+02		-7.147734E+02
-2.402908E+02		-8.722236E+01		3.275131E+02
6.613079E+02		-3.923061E+02		-2.690018E+02
7.293397E+02		-3.919506E+02		-3.373891E+02
6.514385E+02		1.407816E+02		-7.922201E+02
1.148118E+02		7.016849E+02		-8.164967E+02
4.417125E+01		-2.910633E+02		2.468921E+02
1.192477E+01		-2.537714E+02		2.418466E+02
1.107305E+02		4.075447E+02		-5.182752E+02
-5.104235E+02		5.120903E+02		-1.666806E+00
8.735264E+01		5.945486E+02		-6.819013E+02
-4.933587E+02		3.464409E+02		1.469178E+02
5.612630E+01		-1.189767E+02		6.285039E+01
-4.446404E+02		-3.156422E+02		7.602825E+02
-1.486240E+02		1.039533E+02		4.467068E+01
-1.376024E+02		4.745486E+02		-3.369461E+02
1.180881E+02		5.221828E+02		-6.402709E+02
-3.557206E+02		1.798680E+02		1.758525E+02
7.933120E+02		-3.582595E+02		-4.350525E+02
6.903553E+01		3.958765E+02		-4.649120E+02
8.090878E+02		-1.489146E+02		-6.601732E+02
-5.206663E+02		4.513312E+02		6.933504E+01
-2.156478E+02		9.096171E+02		-6.939693E+02
4.966246E+02		-4.958027E+02		-8.219295E-01
5.832145E+02		-3.460067E+01		-5.486138E+02
-1.923380E+01		7.398309E+02		-7.205971E+02
5.783687E+02		-1.045599E+01		-5.679127E+02
-6.864397E+02		7.038645E+02		-1.742477E+01
-2.833554E+01		-1.366986E+02		1.650342E+02
-2.062425E+02		-1.103084E+02		3.165508E+02
-2.292505E+02		2.371893E+02		-7.938785E+00
-1.727511E+02		8.787905E+02		-7.060394E+02
-1.458501E+02		-1.364256E+02		2.822757E+02
5.345123E+02		-5.014927E+02		-3.301964E+01
2.120653E+02		-4.707621E+02		2.586968E+02
-4.000455E+02		4.577310E+02		-5.768554E+01
6.966507E+01		6.249860E+02		-6.946511E+02
-6.531354E+02		6.678981E+02		-1.476270E+01
2.321786E+02		-4.067141E+02		1.745354E+02
-3.312434E+02		9.833923E+02		-6.521489E+02
1.456322E+02		-5.980094E+01		-8.583129E+01
6.591058E+02		-2.617200E+02		-3.973858E+02
1.948547E+02		-5.192518E+02		3.243971E+02
-9.444798E+01		-1.833010E+02		2.777490E+02
-4.687531E+02		3.248944E+02		1.438587E+02
-3.378797E+02		5.898219E+02		-2.519422E+02
-4.178975E+02		5.043531E+02		-8.645555E+01
4.535604E+01		-1.750223E+02		1.296662E+02
-3.459995E+02		1.557996E+02		1.901999E+02
6.332334E+02		6.343677E+01		-6.966701E+02
6.604396E+02		-3.381496E+02		-3.222900E+02
-3.541428E+02		6.366572E+02		-2.825144E+02
-8.809430E+01		1.098027E+01		7.711403E+01
-6.982979E+02		7.159158E+02		-1.761791E+01
-6.138266E+02		6.242303E+02		-1.040364E+01
2.574955E+02		-1.634416E+02		-9.405384E+01
6.552048E+02		1.612919E+02		-8.164967E+02
-2.868726E+01		-1.689880E+02		1.976753E+02
9.348996E+01		3.967684E+02		-4.902583E+02
-3.441988E+02		1.244790E+02		2.197198E+02
7.360862E+01		-6.204823E+00		-6.740379E+01
-4.935639E+02		1.740976E+01		4.761542E+02
1.507713E+02		5.560360E+02		-7.068073E+02
-5.297030E+02		5.271515E+01		4.769879E+02
-4.041975E+02		5.534713E+02		-1.492737E+02
-4.000784E+02		3.014189E+02		9.865947E+01
7.090365E+02		-3.950125E+02		-3.140240E+02
-2.571638E+02		5.651285E+02		-3.079647E+02
1.107478E+02		-5.719590E+02		4.612112E+02
1.626765E+02		-5.546392E+02		3.919626E+02
-4.625916E+02		2.424313E+02		2.201602E+02
1.097173E+02		-3.435963E+02		2.338790E+02
-5.565368E+02		9.432881E+01		4.622080E+02
2.119197E+02		5.069840E+02		-7.189037E+02
-1.552250E+01		-2.082833E+02		2.238058E+02
-3.744872E+02		6.145592E+02		-2.400720E+02
-5.583220E+02		5.658439E+02		-7.521852E+00
-3.878557E+02		1.026358E+03		-6.385023E+02
5.335459E+01		-1.591336E+02		1.057790E+02
6.385543E+02		8.184987E+01		-7.204042E+02
-3.595729E+02		1.942795E+02		1.652934E+02
-7.135916E+01		-2.432856E+01		9.568772E+01
-1.238599E+02		2.138532E+02		-8.999334E+01
6.644789E+02		-3.099166E+02		-3.545623E+02
-3.106739E+02		6.280607E+02		-3.173867E+02
-5.896156E+01		-6.018372E+01		1.191453E+02
-2.375297E+02		2.200812E+02		1.744851E+01
-3.819230E+02		4.340452E+02		-5.212225E+01
-4.375516E+02		2.510112E+02		1.865403E+02
-5.422125E+01		7.762736E+02		-7.220524E+02
-5.369800E+01		-8.697640E+01		1.406744E+02
1.540028E+01		6.998927E+02		-7.152930E+02
-4.124109E+02		4.827926E+02		-7.038177E+01
6.036505E+02		-4.921911E+02		-1.114594E+02
6.437991E+02		1.001542E+02		-7.439532E+02
4.577129E+02		-4.843607E+02		2.664775E+01
6.787478E+02		9.757788E+00		-6.885056E+02
-4.212146E+02		6.772791E+00		4.144418E+02
7.900865E+01		-3.216905E+02		2.426819E+02
7.483662E+02		-3.865159E+02		-3.618503E+02
-5.664914E+02		1.910607E+02		3.754307E+02
5.684997E+01		-1.411041E+02		8.425411E+01
1.127789E+02		6.195808E+02		-7.323597E+02
5.710034E+02		-5.005337E+02		-7.046967E+01
3.557018E+02		-4.343710E+02		7.866918E+01
-5.735807E+02		1.393082E+02		4.342725E+02
6.301771E+02		-4.772063E+02		-1.529708E+02
4.198046E+01		4.028757E+02		-4.448562E+02
1.233519E+02		4.240445E+02		-5.473964E+02
-5.186669E+02		1.837117E+02		3.349552E+02
-4.560860E+02		4.027962E+02		5.328987E+01
-3.652720E+02		5.967080E+02		-2.314360E+02
-1.795689E+02		2.430596E+02		-6.349077E+01
-2.423153E+02		9.275098E+02		-6.851945E+02
6.446969E+02		-3.518418E+02		-2.928551E+02
2.803033E+02		-1.887423E+02		-9.156108E+01
5.711851E+02		1.258177E+01		-5.837669E+02
6.257993E+02		-1.525615E+02		-4.732378E+02
-5.407502E+02		1.951173E+02		3.456328E+02
1.740067E+02		-8.473834E+01		-8.926833E+01
1.041938E+02		6.611326E+02		-7.653264E+02
6.627432E+02		-4.307479E+02		-2.319953E+02
-5.547175E+02		-1.870634E+02		7.417809E+02
-6.235305E+01		-1.410194E+02		2.033724E+02
-2.113653E+02		1.871150E+02		2.425031E+01
-1.985578E+02		1.706104E+02		2.794741E+01
7.956886E+02		-1.203177E+02		-6.753709E+02
2.781924E+02		-4.007746E+02		1.225822E+02
3.097159E+02		-4.099767E+02		1.002608E+02
-5.760582E+02		1.682975E+02		4.077607E+02
LINES 257 771
2		0		29
2		1		233
2		2		73
2		3		223
2		4		209
2		5		62
2		6		129
2		7		251
2		8		50
2		9		137
2		10		164
2		11		85
2		12		59
2		13		103
2		14		157
2		15		245
2		16		211
2		17		151
2		18		183
2		19		222
2		20		252
2		21		250
2		22		86
2		23		88
2		24		222
2		25		164
2		26		28
2		26		259
2		26		40
2		27		185
2		27		133
2		27		81
2		28		179
2		29		179
2		30		150
2		30		261
2		31		233
2		31		197
2		32		207
2		32		112
2		33		187
2		33		211
2		34		98
2		34		216
2		35		203
2		35		116
2		36		224
2		36		65
2		37		134
2		37		80
2		38		66
2		38		145
2		39		238
2		39		198
2		40		168
2		41		160
2		41		45
2		42		259
2		42		226
2		43		177
2		43		52
2		44		121
2		44		191
2		45		53
2		46		230
2		46		140
2		47		130
2		47		131
2		48		108
2		48		258
2		49		149
2		49		55
2		50		149
2		51		245
2		51		100
2		52		253
2		53		253
2		54		175
2		54		68
2		55		109
2		56		125
2		56		79
2		57		170
2		57		110
2		58		170
2		58		178
2		59		147
2		60		247
2		60		200
2		61		243
2		61		94
2		62		94
2		63		212
2		63		145
2		64		246
2		64		66
2		65		153
2		66		102
2		67		124
2		67		79
2		68		249
2		69		99
2		69		246
2		70		227
2		70		172
2		71		135
2		71		240
2		72		165
2		72		168
2		73		220
2		74		151
2		74		84
2		75		257
2		75		242
2		76		123
2		76		218
2		77		166
2		77		248
2		78		219
2		78		177
2		80		262
2		81		232
2		82		154
2		82		235
2		83		138
2		83		202
2		84		91
2		85		86
2		87		204
2		87		205
2		88		204
2		89		100
2		89		206
2		90		263
2		90		174
2		91		203
2		92		152
2		92		146
2		93		148
2		95		244
2		95		113
2		96		97
2		96		224
2		97		180
2		98		201
2		99		201
2		101		209
2		101		198
2		102		157
2		103		195
2		104		188
2		104		150
2		105		176
2		105		196
2		106		108
2		106		130
2		107		111
2		107		131
2		109		258
2		110		112
2		110		174
2		111		197
2		113		152
2		114		212
2		114		190
2		115		256
2		115		141
2		116		181
2		117		136
2		117		225
2		118		123
2		118		120
2		119		200
2		119		182
2		121		255
2		122		248
2		122		218
2		124		156
2		125		154
2		126		240
2		126		264
2		127		205
2		127		178
2		128		187
2		128		220
2		132		175
2		132		213
2		133		252
2		134		232
2		135		231
2		136		167
2		137		165
2		138		250
2		138		257
2		139		202
2		139		235
2		140		192
2		142		234
2		142		143
2		143		210
2		144		244
2		144		194
2		146		172
2		147		180
2		148		237
2		153		184
2		153		216
2		155		243
2		155		194
2		156		262
2		158		167
2		158		249
2		159		231
2		159		169
2		160		162
2		161		225
2		161		227
2		162		252
2		163		173
2		163		189
2		164		193
2		166		222
2		169		239
2		171		223
2		171		228
2		173		190
2		176		255
2		181		247
2		182		228
2		183		214
2		184		195
2		185		215
2		186		219
2		186		250
2		188		217
2		191		251
2		193		210
2		197		199
2		199		208
2		206		224
2		207		234
2		208		241
2		211		247
2		214		237
2		215		230
2		217		221
2		221		226
2		222		260
2		229		239
2		229		242
2		236		254
2		236		265
2		238		256
2		241		265
2		245		254
2		260		261
2		263		264
POINT_DATA 266
scalars NodeType integer
LOOKUP_TABLE default
7
7
7
7
7
7
7
7
7
7
7
7
7
7
7
7
7
7
7
7
7
7
7
7
7
7
0
0
0
0
0
0
0
0
0
0
0
0
0
0
0
0
0
0
0
0
0
0
0
0
0
0
0
0
0
0
0
0
0
0
0
0
0
0
0
0
0
0
0
0
0
0
0
0
0
0
0
0
0
0
0
0
0
0
0
0
0
0
0
0
0
0
0
9
0
0
0
0
0
0
0
0
0
0
0
0
0
0
0
0
0
0
0
0
0
0
0
0
0
0
9
0
0
0
0
0
0
0
0
9
0
0
0
0
0
0
0
0
0
0
0
8
0
0
0
0
0
0
0
0
0
0
0
0
0
0
0
0
0
0
0
0
0
0
0
0
0
0
0
0
0
0
0
0
0
0
0
0
0
0
0
0
0
0
0
0
0
0
0
8
0
0
8
0
0
0
9
0
0
0
0
0
0
0
0
0
0
0
0
0
0
0
0
8
0
0
0
0
0
0
0
0
0
0
0
0
0
0
0
0
0
0
0
0
0
0
0
0
0
0
0
0
0
0
0
0
0
0
0
0
0
0
0
0
0
0
0
0
0
0
0
0
0
0
0
0
CELL_DATA 257
SCALARS SlipSystem integer
LOOKUP_TABLE default
3
3
3
3
1
1
1
1
2
2
2
2
2
2
2
2
1
1
3
3
2
2
2
2
1
1
3
1
2
1
3
2
3
3
1
1
3
3
3
3
3
3
3
3
1
1
1
1
2
2
1
1
1
1
2
1
1
1
1
1
1
1
1
1
1
1
2
2
2
2
2
2
2
3
3
1
1
1
1
2
2
2
2
2
2
2
2
3
3
1
1
1
1
1
3
3
1
2
2
2
1
3
3
1
1
1
1
2
2
3
1
1
1
1
3
3
3
3
1
1
2
2
2
2
2
2
1
2
2
2
2
3
3
1
1
1
1
1
3
1
1
2
2
2
3
3
1
1
2
2
1
1
1
1
2
2
2
2
2
3
1
2
1
1
1
1
1
1
1
1
3
3
3
3
1
3
3
2
2
1
1
2
2
3
3
1
1
3
2
1
1
2
3
1
2
2
1
3
3
3
1
1
1
2
3
2
3
1
1
2
1
1
1
1
1
1
1
1
1
1
3
3
1
3
3
1
1
1
3
3
2
1
1
1
1
1
3
1
1
3
3
1
2
3
1
1
1
1
1
1
1
1
1
1
1
1
1
