# vtk DataFile Version 1.0
dislocation microstructure
ASCII
DATASET POLYDATA
POINTS 209 float
-1.407136E+02		-2.213016E+02		3.620151E+02
-4.069171E+02		1.959506E+01		3.873221E+02
-2.678171E+02		5.735064E+02		-3.056893E+02
-3.585793E+02		4.159045E+02		-5.732522E+01
2.435975E+02		5.088909E+02		-7.524885E+02
-3.645297E+01		4.790810E+02		-4.426281E+02
1.137360E+01		4.804267E+01		-5.941627E+01
2.977420E+02		-2.208350E+02		-7.690702E+01
-3.705953E+02		-3.364613E+02		7.070566E+02
-2.633774E+02		-5.962946E+01		3.230069E+02
-5.059046E+01		-1.177741E+02		1.683646E+02
-3.709113E+00		-3.770962E+02		3.808053E+02
-5.645235E+02		3.793574E+02		1.851661E+02
-3.703694E+02		9.044315E+01		2.799262E+02
-5.304416E+02		4.354699E+02		9.497178E+01
-5.136564E+02		1.737037E+02		3.399526E+02
-4.002894E+02		6.227393E+02		-2.224499E+02
-1.296146E+02		4.379697E+02		-3.083551E+02
3.132033E+01		-1.863970E+02		1.550767E+02
-2.594066E+02		2.052232E+02		5.418340E+01
5.559540E+02		2.224913E+01		-5.782031E+02
6.021915E+02		-3.324134E+02		-2.697781E+02
-9.943729E+01		-2.899623E+02		3.893996E+02
3.188077E+01		-5.505567E+02		5.186760E+02
-2.457631E+02		2.346175E+02		1.114560E+01
-1.949524E+01		-1.452330E+02		1.647282E+02
-2.109452E+02		-5.846422E+01		2.694094E+02
7.636302E+01		-1.654986E+02		8.913559E+01
-1.535803E+02		-1.334118E+02		2.869921E+02
-1.365377E+02		-1.856557E+02		3.221934E+02
-4.178733E+02		1.283577E+01		4.050376E+02
-4.098669E+02		3.328462E+01		3.765823E+02
-3.865291E+02		5.561752E+02		-1.696461E+02
-3.471225E+02		5.948573E+02		-2.477348E+02
-9.100539E+01		2.704548E+02		-1.794494E+02
-3.935218E+02		4.909139E+02		-9.739217E+01
-3.816713E+02		4.507906E+02		-6.911930E+01
2.517393E+02		2.230607E+02		-4.747999E+02
3.618164E+02		2.528608E+02		-6.146771E+02
3.776938E+02		4.101796E+02		-7.878734E+02
9.410967E+01		2.613931E+02		-3.555028E+02
-4.220057E+01		3.493017E+02		-3.071011E+02
2.514008E+02		5.400783E+01		-3.054086E+02
2.700084E+01		1.681899E+02		-1.951907E+02
-4.431263E+02		7.879351E+02		-3.448089E+02
3.792265E+02		-9.214199E+01		-2.870846E+02
4.316100E+02		-2.347096E+02		-1.969004E+02
-4.502860E+02		-1.050775E+02		5.553635E+02
-4.602223E+02		-1.957755E+02		6.559979E+02
-4.418949E+02		-2.689839E+02		7.108789E+02
-4.087250E+02		-3.116126E+02		7.203376E+02
-4.310925E+02		-2.916321E+01		4.602558E+02
4.111984E+02		-1.520512E+02		-2.591472E+02
3.965017E+02		-1.218500E+02		-2.746517E+02
9.622924E+01		-2.891032E+02		1.928739E+02
7.007976E+01		-2.156773E+02		1.455975E+02
7.142573E+02		-2.350514E+02		-4.792059E+02
9.665962E+01		-3.736213E+02		2.769617E+02
8.697094E+01		-4.265629E+02		3.395920E+02
-5.319210E+02		3.593768E+02		1.725442E+02
-3.136416E+02		1.992585E+02		1.143831E+02
-3.136372E+02		1.222002E+02		1.914370E+02
-3.373764E+02		9.592548E+01		2.414509E+02
-4.211720E+02		3.802851E+02		4.088689E+01
-4.846131E+02		4.240916E+02		6.052150E+01
-4.634128E+02		2.191057E+02		2.443071E+02
-4.822766E+02		1.858725E+02		2.964041E+02
7.111638E+02		-1.856827E+02		-5.254811E+02
-2.929777E+02		7.384292E+02		-4.454515E+02
-4.669984E+02		7.830123E+02		-3.160139E+02
-1.046531E+02		5.877658E+02		-4.831127E+02
3.811651E+02		-2.837947E+02		-9.737035E+01
2.127519E+02		8.448951E+01		-2.972414E+02
-2.935710E+02		5.932667E+02		-2.996957E+02
9.931812E+01		-3.533086E+02		2.539905E+02
4.264971E+02		-2.614987E+02		-1.649984E+02
-1.282865E+02		1.472067E+02		-1.892023E+01
-1.942289E+02		1.960513E+02		-1.822452E+00
-2.326727E+02		2.099001E+02		2.277255E+01
7.137033E+02		-2.105963E+02		-5.031069E+02
6.881681E+02		-9.943353E+01		-5.887346E+02
6.320596E+02		-1.841118E+01		-6.136485E+02
6.969584E+02		-3.046023E+02		-3.923561E+02
6.573880E+02		-3.356195E+02		-3.217685E+02
-1.145429E+02		4.107456E+02		-2.962027E+02
-2.525532E+01		-3.407621E+02		3.660174E+02
-6.159110E+01		-3.093080E+02		3.708991E+02
8.403610E+01		-5.096733E+02		4.256372E+02
6.291380E+01		-5.407555E+02		4.778417E+02
-4.705851E+02		2.004204E+02		2.701646E+02
-3.248750E+01		2.161239E+02		-1.836364E+02
-1.655383E+02		3.214173E+02		-1.558790E+02
-2.993411E+02		3.297557E+02		-3.041452E+01
6.568692E+01		-1.201004E+02		5.441347E+01
1.096184E+02		1.427913E+02		-2.524097E+02
-1.849477E+02		-8.573516E+01		2.706829E+02
-4.644567E+02		2.606034E+02		2.038533E+02
-4.771107E+02		2.950485E+02		1.820622E+02
-3.414104E+02		2.696919E+02		7.171847E+01
-3.697251E+02		3.183390E+02		5.138615E+01
-3.704546E+02		5.796495E+02		-2.091948E+02
-3.944620E+02		5.262624E+02		-1.318005E+02
1.862627E+02		2.295923E+02		-4.158550E+02
3.053492E+02		2.290395E+02		-5.343887E+02
1.697875E+02		1.127403E+02		-2.825277E+02
3.185508E+02		-1.185417E+01		-3.066966E+02
-4.577148E+02		-1.463381E+02		6.040529E+02
-4.410472E+02		-6.703035E+01		5.080775E+02
-4.599682E+02		-1.694981E+02		6.294663E+02
-4.563264E+02		-2.276556E+02		6.839820E+02
-4.253025E+02		-7.609070E+00		4.329116E+02
-4.361397E+02		-4.830956E+01		4.844492E+02
8.241641E+01		-2.446041E+02		1.621877E+02
1.006166E+02		-3.317111E+02		2.310945E+02
-3.073834E+02		1.602251E+02		1.471582E+02
-3.257649E+02		2.351390E+02		9.062595E+01
-2.251115E+02		3.456294E+02		-1.205179E+02
-1.865418E+02		6.638611E+02		-4.773194E+02
-8.033813E+01		1.041873E+02		-2.384912E+01
4.330848E+01		-8.159823E+01		3.828974E+01
-5.412354E+01		8.000496E+01		-2.588142E+01
6.242820E+00		1.814639E+02		-1.877067E+02
-1.585932E+02		1.723018E+02		-1.370862E+01
-1.019415E+02		1.236563E+02		-2.171478E+01
7.066709E+02		-1.597437E+02		-5.469273E+02
7.123544E+02		-2.590120E+02		-4.533424E+02
-9.100795E+00		1.938694E+02		-1.847686E+02
8.747821E+01		-4.684960E+02		3.810178E+02
-3.215372E+02		5.996183E+02		-2.780811E+02
4.436125E+00		6.838817E+01		-7.282430E+01
-4.543408E+02		-1.250937E+02		5.794346E+02
-4.458010E+02		-8.583907E+01		5.316401E+02
6.623232E+01		1.573580E+02		-2.235903E+02
5.901917E+02		1.079839E+01		-6.009901E+02
6.672470E+02		-5.984343E+01		-6.074036E+02
-3.933828E+02		6.770654E+01		3.256763E+02
-2.112655E+02		6.832560E+02		-4.719905E+02
-2.398331E+02		-6.368954E+01		3.035226E+02
6.296957E+02		-3.388848E+02		-2.908109E+02
6.803778E+02		-3.234796E+02		-3.568983E+02
3.955403E+02		2.984875E+02		-6.940278E+02
2.884935E+02		5.075231E+02		-7.960167E+02
2.526868E+01		3.012208E+02		-3.264895E+02
4.377701E+01		-2.098479E+02		1.660709E+02
-3.717226E+02		7.761129E+02		-4.043903E+02
-4.469704E+02		6.479693E+02		-2.009989E+02
-8.347301E+01		5.640766E+02		-4.806036E+02
-5.052048E+02		3.351732E+02		1.700316E+02
-3.886887E+02		3.443630E+02		4.432565E+01
-3.564004E+02		2.972219E+02		5.917855E+01
-2.710618E+02		1.908015E+01		2.519816E+02
7.474878E+01		-1.527358E+02		7.798699E+01
-6.392934E+01		5.398148E+02		-4.758855E+02
-8.590613E+01		3.829993E+02		-2.970932E+02
7.069919E+02		-2.827170E+02		-4.242749E+02
3.484434E+02		-2.722510E+02		-7.619240E+01
6.995505E+02		-1.314118E+02		-5.681388E+02
1.424430E+02		2.414904E+02		-3.839335E+02
-2.603220E+02		7.180635E+02		-4.577416E+02
2.861372E+02		2.220684E+01		-3.083440E+02
3.499824E+02		-5.002604E+01		-2.999563E+02
-1.441975E+02		6.271267E+02		-4.829292E+02
3.337247E+02		2.377481E+02		-5.714727E+02
-4.920607E+02		7.255512E+02		-2.334906E+02
-1.932929E+01		-1.450538E+02		1.643831E+02
3.424678E+02		4.617353E+02		-8.042031E+02
3.981879E+02		3.508893E+02		-7.490772E+02
-2.358062E+02		7.012820E+02		-4.654758E+02
2.209337E+02		2.243930E+02		-4.453267E+02
4.101093E+02		-2.802234E+02		-1.298859E+02
9.160497E+01		-3.989227E+02		3.073177E+02
-2.816603E+02		2.638073E+02		1.785297E+01
-4.172935E+02		7.873971E+02		-3.701037E+02
-3.180578E+02		5.186670E+01		2.661911E+02
2.791066E+02		2.246738E+02		-5.037804E+02
-3.307192E+02		7.587714E+02		-4.280522E+02
3.617326E+02		4.364849E+02		-7.982175E+02
4.257714E+02		-1.931412E+02		-2.326302E+02
8.663584E+01		-4.454808E+02		3.588450E+02
-1.426181E+02		-1.602199E+02		3.028380E+02
-1.009813E+01		3.258676E+02		-3.157694E+02
-6.329514E+01		3.650299E+02		-3.017348E+02
-4.521055E+02		4.052965E+02		4.680897E+01
4.581587E+01		-1.751235E+02		1.293076E+02
-1.267137E+02		2.976154E+02		-1.709017E+02
3.815085E+02		2.717402E+02		-6.532487E+02
5.856234E+01		2.804170E+02		-3.389793E+02
-2.663627E+02		3.499344E+02		-8.357165E+01
-2.367585E+02		-1.635247E+01		2.531110E+02
-4.897413E+02		7.611130E+02		-2.713717E+02
-4.769567E+02		6.866285E+02		-2.096718E+02
3.153017E+02		-2.472229E+02		-6.807876E+01
-6.116228E+01		2.440380E+02		-1.828757E+02
-1.099163E+00		-1.718148E+02		1.729140E+02
-4.695563E+01		5.144657E+02		-4.675101E+02
-3.564039E+02		6.716091E+01		2.892430E+02
1.400445E+02		1.289628E+02		-2.690073E+02
3.162431E+02		4.878587E+02		-8.041018E+02
2.592767E+02		5.186819E+02		-7.779586E+02
3.996934E+02		3.235585E+02		-7.232519E+02
8.282032E+01		-1.993451E+02		1.165248E+02
-2.991392E+02		2.975702E+02		1.568962E+00
3.908970E+02		3.796826E+02		-7.705796E+02
-1.948745E+02		3.353047E+02		-1.404301E+02
7.569441E+01		-5.274777E+02		4.517833E+02
8.674349E+01		-4.896011E+02		4.028576E+02
-3.242234E+02		1.076991E+02		2.165243E+02
-2.845651E+02		3.419768E+02		-5.741176E+01
-4.041853E+02		5.267878E+01		3.515065E+02
LINES 197 591
2		0		29
2		1		31
2		2		73
2		3		36
2		4		198
2		5		194
2		6		129
2		7		191
2		8		50
2		9		137
2		10		164
2		11		85
2		12		59
2		13		62
2		14		64
2		15		66
2		16		145
2		17		84
2		18		183
2		19		78
2		20		133
2		21		138
2		22		86
2		23		88
2		24		171
2		25		164
2		26		137
2		26		95
2		26		188
2		27		151
2		27		183
2		27		200
2		28		95
2		28		179
2		29		179
2		30		110
2		30		31
2		31		208
2		32		100
2		32		101
2		33		100
2		33		128
2		34		184
2		34		192
2		35		101
2		35		36
2		37		168
2		37		174
2		38		162
2		38		185
2		39		202
2		39		176
2		40		157
2		40		186
2		41		181
2		41		180
2		42		72
2		42		159
2		43		132
2		43		121
2		44		172
2		44		69
2		45		160
2		45		53
2		46		75
2		46		177
2		47		130
2		47		131
2		48		108
2		48		109
2		49		109
2		49		50
2		51		110
2		51		111
2		52		177
2		52		53
2		54		112
2		54		113
2		55		112
2		55		143
2		55		200
2		56		125
2		56		79
2		57		170
2		57		74
2		58		170
2		58		178
2		59		147
2		60		114
2		60		115
2		61		114
2		61		206
2		62		206
2		63		148
2		63		182
2		64		182
2		65		96
2		65		89
2		66		89
2		67		124
2		67		79
2		68		175
2		68		158
2		69		189
2		70		161
2		70		146
2		71		155
2		71		169
2		72		104
2		73		128
2		74		113
2		75		169
2		76		122
2		76		123
2		77		122
2		77		78
2		80		134
2		80		156
2		81		134
2		81		133
2		82		139
2		82		154
2		83		139
2		83		138
2		84		153
2		85		86
2		87		204
2		87		205
2		88		204
2		90		192
2		90		126
2		91		184
2		91		203
2		92		201
2		92		207
2		93		151
2		93		119
2		94		132
2		94		196
2		96		97
2		97		147
2		98		115
2		98		149
2		99		149
2		99		148
2		102		157
2		102		168
2		103		162
2		103		174
2		104		196
2		105		160
2		105		159
2		106		108
2		106		130
2		107		111
2		107		131
2		116		203
2		116		187
2		117		161
2		117		136
2		118		123
2		118		120
2		121		126
2		124		156
2		125		154
2		127		205
2		127		178
2		135		208
2		135		195
2		136		167
2		140		185
2		140		199
2		141		197
2		141		198
2		142		180
2		142		186
2		143		193
2		144		175
2		144		172
2		145		190
2		146		152
2		150		173
2		150		188
2		152		194
2		153		181
2		155		191
2		158		167
2		163		189
2		163		190
2		164		193
2		165		197
2		165		176
2		166		199
2		166		202
2		171		201
2		173		195
2		187		207
POINT_DATA 209
scalars NodeType integer
LOOKUP_TABLE default
7
7
7
7
7
7
7
7
7
7
7
7
7
7
7
7
7
7
7
7
7
7
7
7
7
7
0
0
0
0
0
0
0
0
0
0
0
0
0
0
0
0
0
0
0
0
0
0
0
0
0
0
0
0
0
0
0
0
0
0
0
0
0
0
0
0
0
0
0
0
0
0
0
0
0
0
0
0
0
0
0
0
0
0
0
0
0
0
0
0
0
0
0
0
0
0
0
0
0
0
0
0
0
0
0
0
0
0
0
0
0
0
0
0
0
0
0
0
0
9
9
0
0
0
0
0
0
0
0
9
0
0
0
0
0
0
0
0
0
0
0
0
0
0
0
0
0
0
0
0
0
0
0
0
0
0
0
0
0
0
0
0
0
0
0
0
0
0
0
0
0
0
0
0
0
0
0
0
0
0
0
0
0
0
0
0
0
0
0
0
0
0
0
0
0
0
0
0
0
0
0
0
0
0
0
0
0
0
0
CELL_DATA 197
SCALARS SlipSystem integer
LOOKUP_TABLE default
3
3
3
3
1
1
1
1
2
2
2
2
2
2
2
2
1
1
3
3
2
2
2
2
1
1
2
3
1
13
3
1
3
3
3
2
2
1
3
3
3
3
1
1
3
3
1
1
1
1
1
1
1
1
1
1
1
1
1
1
1
1
1
1
1
1
2
2
2
2
2
2
2
2
1
1
2
2
2
3
1
2
2
2
2
2
2
2
2
2
2
2
2
2
2
2
2
2
2
2
2
1
1
1
1
1
1
1
1
3
2
1
3
3
3
3
2
2
2
2
2
2
2
2
1
2
2
2
2
1
1
1
1
1
1
13
13
1
1
2
2
2
2
2
2
1
1
1
1
1
1
1
2
2
2
2
1
1
1
1
3
3
1
2
2
2
2
1
1
1
1
1
1
1
1
1
3
1
1
1
1
1
1
1
1
1
1
1
1
3
1
1
1
1
1
1
1
