# vtk DataFile Version 1.0
dislocation microstructure
ASCII
DATASET POLYDATA
POINTS 204 float
-1.407136E+02		-2.213016E+02		3.620151E+02
-4.069171E+02		1.959506E+01		3.873221E+02
-2.678171E+02		5.735064E+02		-3.056893E+02
-3.585793E+02		4.159045E+02		-5.732522E+01
2.435975E+02		5.088909E+02		-7.524885E+02
-3.645297E+01		4.790810E+02		-4.426281E+02
1.137360E+01		4.804267E+01		-5.941627E+01
2.977420E+02		-2.208350E+02		-7.690702E+01
-3.705953E+02		-3.364613E+02		7.070566E+02
-2.633774E+02		-5.962946E+01		3.230069E+02
-5.059046E+01		-1.177741E+02		1.683646E+02
-3.709113E+00		-3.770962E+02		3.808053E+02
-5.645235E+02		3.793574E+02		1.851661E+02
-3.703694E+02		9.044315E+01		2.799262E+02
-5.304416E+02		4.354699E+02		9.497178E+01
-5.136564E+02		1.737037E+02		3.399526E+02
-4.002894E+02		6.227393E+02		-2.224499E+02
-1.296146E+02		4.379697E+02		-3.083551E+02
3.132033E+01		-1.863970E+02		1.550767E+02
-2.594066E+02		2.052232E+02		5.418340E+01
5.559540E+02		2.224913E+01		-5.782031E+02
6.021915E+02		-3.324134E+02		-2.697781E+02
-9.943729E+01		-2.899623E+02		3.893996E+02
3.188077E+01		-5.505567E+02		5.186760E+02
-2.457631E+02		2.346175E+02		1.114560E+01
-1.949524E+01		-1.452330E+02		1.647282E+02
-2.174378E+02		-5.739984E+01		2.748376E+02
7.431942E+01		-1.734089E+02		9.908944E+01
-1.555881E+02		-1.337935E+02		2.893816E+02
-1.378642E+02		-1.848438E+02		3.227080E+02
-4.135597E+02		9.819973E+00		4.037397E+02
-4.065811E+02		3.397071E+01		3.726103E+02
-3.836280E+02		5.539107E+02		-1.702827E+02
-3.451448E+02		5.922982E+02		-2.471534E+02
-9.557075E+01		2.623444E+02		-1.667737E+02
-3.915167E+02		4.901725E+02		-9.865583E+01
-3.806679E+02		4.507999E+02		-7.013197E+01
2.445100E+02		2.373822E+02		-4.818922E+02
3.504769E+02		2.656264E+02		-6.161032E+02
3.693649E+02		4.101540E+02		-7.795188E+02
9.352057E+01		2.734078E+02		-3.669284E+02
-3.825664E+01		3.602488E+02		-3.219922E+02
2.466388E+02		4.608214E+01		-2.927210E+02
3.017937E+01		1.479635E+02		-1.781429E+02
-4.360801E+02		7.753426E+02		-3.392626E+02
3.697837E+02		-9.425201E+01		-2.755317E+02
4.198809E+02		-2.290105E+02		-1.908703E+02
-4.435235E+02		-1.094735E+02		5.529971E+02
-4.544673E+02		-1.984184E+02		6.528857E+02
-4.386272E+02		-2.688031E+02		7.074303E+02
-4.077549E+02		-3.109546E+02		7.187095E+02
-4.239884E+02		-3.392704E+01		4.579155E+02
4.001794E+02		-1.508236E+02		-2.493558E+02
3.861896E+02		-1.223499E+02		-2.638397E+02
9.048031E+01		-2.872328E+02		1.967525E+02
6.229757E+01		-2.075497E+02		1.452521E+02
7.079531E+02		-2.318065E+02		-4.761466E+02
8.984308E+01		-3.693387E+02		2.794956E+02
7.772126E+01		-4.212473E+02		3.435260E+02
-5.321467E+02		3.587649E+02		1.733818E+02
-3.202830E+02		2.010950E+02		1.191881E+02
-3.172066E+02		1.246408E+02		1.925658E+02
-3.383461E+02		9.729007E+01		2.410561E+02
-4.236841E+02		3.777871E+02		4.589703E+01
-4.842288E+02		4.220211E+02		6.220775E+01
-4.656359E+02		2.202664E+02		2.453695E+02
-4.831054E+02		1.870186E+02		2.960867E+02
7.045396E+02		-1.831133E+02		-5.214263E+02
-2.941985E+02		7.277934E+02		-4.335949E+02
-4.577942E+02		7.719019E+02		-3.141077E+02
-1.112053E+02		5.817831E+02		-4.705777E+02
3.774220E+02		-2.753204E+02		-1.021016E+02
2.096066E+02		7.517769E+01		-2.847843E+02
-2.935235E+02		5.925013E+02		-2.989778E+02
9.269068E+01		-3.494868E+02		2.567961E+02
4.154955E+02		-2.529623E+02		-1.625332E+02
-1.305324E+02		1.438255E+02		-1.329316E+01
-1.943606E+02		1.931415E+02		1.219165E+00
-2.321962E+02		2.083205E+02		2.387571E+01
7.071464E+02		-2.076574E+02		-4.994890E+02
6.827870E+02		-9.903038E+01		-5.837567E+02
6.305079E+02		-2.008366E+01		-6.104242E+02
6.928223E+02		-3.010725E+02		-3.917498E+02
6.557310E+02		-3.333297E+02		-3.224012E+02
-1.112045E+02		4.132322E+02		-3.020277E+02
-2.594677E+01		-3.410814E+02		3.670282E+02
-6.175446E+01		-3.097631E+02		3.715175E+02
8.081447E+01		-5.076273E+02		4.268129E+02
6.175163E+01		-5.391964E+02		4.774448E+02
-4.722456E+02		2.017754E+02		2.704703E+02
-4.074757E+01		2.084462E+02		-1.676986E+02
-1.663436E+02		3.114443E+02		-1.451007E+02
-2.902468E+02		3.224822E+02		-3.223543E+01
6.491707E+01		-1.203771E+02		5.546000E+01
1.116354E+02		1.300393E+02		-2.416747E+02
-1.872674E+02		-8.679891E+01		2.740663E+02
-4.671224E+02		2.615744E+02		2.055481E+02
-4.792530E+02		2.949065E+02		1.843466E+02
-3.481619E+02		2.697438E+02		7.841811E+01
-3.751801E+02		3.169120E+02		5.826815E+01
-3.677669E+02		5.769608E+02		-2.091938E+02
-3.918216E+02		5.247189E+02		-1.328972E+02
1.818885E+02		2.433047E+02		-4.251932E+02
2.960405E+02		2.431572E+02		-5.391977E+02
1.681283E+02		1.022669E+02		-2.703951E+02
3.111670E+02		-1.696671E+01		-2.942003E+02
-4.512884E+02		-1.501543E+02		6.014426E+02
-4.340549E+02		-7.173659E+01		5.057915E+02
-4.538074E+02		-1.728420E+02		6.266494E+02
-4.513256E+02		-2.291429E+02		6.804685E+02
-4.187522E+02		-1.207352E+01		4.308257E+02
-4.290456E+02		-5.309660E+01		4.821422E+02
7.674464E+01		-2.435736E+02		1.668289E+02
9.467365E+01		-3.289488E+02		2.342752E+02
-3.129991E+02		1.629167E+02		1.500825E+02
-3.326633E+02		2.359925E+02		9.667075E+01
-2.213888E+02		3.342523E+02		-1.128634E+02
-1.912105E+02		6.557052E+02		-4.644946E+02
-8.295547E+01		1.004439E+02		-1.748842E+01
4.330339E+01		-8.159844E+01		3.829505E+01
-5.746789E+01		7.896423E+01		-2.149634E+01
5.900810E-02		1.640305E+02		-1.640895E+02
-1.599361E+02		1.690863E+02		-9.150116E+00
-1.046470E+02		1.199805E+02		-1.533355E+01
7.001623E+02		-1.576459E+02		-5.425164E+02
7.065129E+02		-2.555210E+02		-4.509919E+02
-1.870464E+01		1.835947E+02		-1.648900E+02
8.119628E+01		-4.654758E+02		3.842796E+02
-3.205699E+02		5.976666E+02		-2.770967E+02
4.678682E+00		6.825515E+01		-7.293383E+01
-4.477235E+02		-1.292457E+02		5.769692E+02
-4.389191E+02		-9.041454E+01		5.293337E+02
7.023373E+01		1.427906E+02		-2.130244E+02
5.899848E+02		9.689061E+00		-5.996739E+02
6.634892E+02		-6.082091E+01		-6.026683E+02
-3.864083E+02		5.865151E+01		3.277568E+02
-2.150590E+02		6.740701E+02		-4.590111E+02
-2.410076E+02		-6.164219E+01		3.026498E+02
6.291332E+02		-3.376862E+02		-2.914471E+02
6.774599E+02		-3.203913E+02		-3.570685E+02
3.829446E+02		3.077301E+02		-6.906747E+02
2.880494E+02		5.024298E+02		-7.904792E+02
2.796055E+01		3.117500E+02		-3.397106E+02
4.436433E+01		-2.058000E+02		1.614356E+02
-3.693601E+02		7.643704E+02		-3.950102E+02
-4.455027E+02		6.513068E+02		-2.058041E+02
-9.085498E+01		5.592552E+02		-4.684002E+02
-5.063456E+02		3.346841E+02		1.716615E+02
-3.928978E+02		3.421474E+02		5.075041E+01
-3.626438E+02		2.965500E+02		6.609374E+01
-2.740902E+02		1.337015E+01		2.607201E+02
7.302794E+01		-1.524639E+02		7.943594E+01
-7.115987E+01		5.364794E+02		-4.653195E+02
-8.208702E+01		3.902763E+02		-3.081893E+02
7.018707E+02		-2.791080E+02		-4.227627E+02
3.485133E+02		-2.671976E+02		-8.131563E+01
6.933935E+02		-1.299716E+02		-5.634219E+02
1.399919E+02		2.544311E+02		-3.944231E+02
-2.625991E+02		7.079206E+02		-4.453216E+02
2.799981E+02		1.565529E+01		-2.956533E+02
3.414309E+02		-5.356207E+01		-2.878688E+02
-1.498200E+02		6.200364E+02		-4.702163E+02
3.233715E+02		2.513899E+02		-5.747614E+02
-4.828256E+02		7.219252E+02		-2.390996E+02
-1.953489E+01		-1.452279E+02		1.647628E+02
3.377812E+02		4.587668E+02		-7.965481E+02
3.866444E+02		3.553592E+02		-7.420036E+02
-2.389397E+02		6.916801E+02		-4.527404E+02
2.149479E+02		2.385326E+02		-4.534804E+02
4.020667E+02		-2.704694E+02		-1.315972E+02
8.372607E+01		-3.938766E+02		3.101506E+02
-2.788016E+02		2.658006E+02		1.300105E+01
-4.129400E+02		7.753539E+02		-3.624139E+02
-3.187247E+02		4.359410E+01		2.751306E+02
2.708128E+02		2.389888E+02		-5.098016E+02
-3.304607E+02		7.476199E+02		-4.171592E+02
3.540009E+02		4.345710E+02		-7.885719E+02
4.142226E+02		-1.898242E+02		-2.243984E+02
7.855221E+01		-4.417112E+02		3.631590E+02
-1.444754E+02		-1.598672E+02		3.043426E+02
-6.439960E+00		3.364655E+02		-3.300256E+02
-5.968739E+01		3.752098E+02		-3.155224E+02
-4.529996E+02		4.027267E+02		5.027284E+01
4.621380E+01		-1.759574E+02		1.297436E+02
-1.293417E+02		2.885238E+02		-1.591821E+02
3.691902E+02		2.829681E+02		-6.521583E+02
5.984166E+01		2.915122E+02		-3.513539E+02
-2.600593E+02		3.389559E+02		-7.889667E+01
-2.421488E+02		-1.883204E+01		2.609809E+02
-4.792314E+02		7.527841E+02		-2.735528E+02
-4.708849E+02		6.869962E+02		-2.161113E+02
3.165605E+02		-2.455431E+02		-7.101745E+01
-6.761621E+01		2.367106E+02		-1.690944E+02
-1.734671E-01		-1.703238E+02		1.704972E+02
-5.411319E+01		5.144342E+02		-4.603210E+02
-3.531329E+02		5.692357E+01		2.962093E+02
1.401254E+02		1.173381E+02		-2.574635E+02
3.134441E+02		4.835887E+02		-7.970328E+02
2.615195E+02		5.141262E+02		-7.756458E+02
3.871419E+02		3.304316E+02		-7.175735E+02
-2.911951E+02		2.949814E+02		-3.786277E+00
3.806115E+02		3.817763E+02		-7.623877E+02
-1.936514E+02		3.244406E+02		-1.307892E+02
7.308348E+01		-5.252467E+02		4.521632E+02
LINES 192 576
2		0		29
2		1		31
2		2		73
2		3		36
2		4		198
2		5		194
2		6		129
2		7		191
2		8		50
2		9		137
2		10		164
2		11		85
2		12		59
2		13		62
2		14		64
2		15		66
2		16		145
2		17		84
2		18		183
2		19		78
2		20		133
2		21		138
2		22		86
2		23		88
2		24		171
2		25		164
2		26		137
2		26		95
2		26		188
2		27		151
2		27		183
2		27		55
2		28		95
2		28		179
2		29		179
2		30		110
2		30		31
2		31		135
2		32		100
2		32		101
2		33		100
2		33		128
2		34		184
2		34		192
2		35		101
2		35		36
2		37		168
2		37		174
2		38		162
2		38		185
2		39		201
2		39		176
2		40		157
2		40		186
2		41		181
2		41		180
2		42		72
2		42		159
2		43		132
2		43		121
2		44		172
2		44		69
2		45		160
2		45		53
2		46		75
2		46		177
2		47		130
2		47		131
2		48		108
2		48		109
2		49		109
2		49		50
2		51		110
2		51		111
2		52		177
2		52		53
2		54		112
2		54		113
2		55		112
2		55		143
2		56		125
2		56		79
2		57		170
2		57		74
2		58		170
2		58		178
2		59		147
2		60		114
2		60		115
2		61		114
2		61		62
2		63		148
2		63		182
2		64		182
2		65		96
2		65		89
2		66		89
2		67		124
2		67		79
2		68		175
2		68		158
2		69		189
2		70		161
2		70		146
2		71		155
2		71		169
2		72		104
2		73		128
2		74		113
2		75		169
2		76		122
2		76		123
2		77		122
2		77		78
2		80		134
2		80		156
2		81		134
2		81		133
2		82		139
2		82		154
2		83		139
2		83		138
2		84		153
2		85		86
2		87		127
2		87		203
2		88		203
2		90		192
2		90		126
2		91		184
2		91		202
2		92		187
2		92		200
2		93		151
2		93		119
2		94		132
2		94		196
2		96		97
2		97		147
2		98		115
2		98		149
2		99		149
2		99		148
2		102		157
2		102		168
2		103		162
2		103		174
2		104		196
2		105		160
2		105		159
2		106		108
2		106		130
2		107		111
2		107		131
2		116		202
2		116		187
2		117		161
2		117		136
2		118		123
2		118		120
2		121		126
2		124		156
2		125		154
2		127		178
2		135		195
2		136		167
2		140		185
2		140		199
2		141		197
2		141		198
2		142		180
2		142		186
2		143		193
2		144		175
2		144		172
2		145		190
2		146		152
2		150		173
2		150		188
2		152		194
2		153		181
2		155		191
2		158		167
2		163		189
2		163		190
2		164		193
2		165		197
2		165		176
2		166		199
2		166		201
2		171		200
2		173		195
POINT_DATA 204
scalars NodeType integer
LOOKUP_TABLE default
7
7
7
7
7
7
7
7
7
7
7
7
7
7
7
7
7
7
7
7
7
7
7
7
7
7
0
0
0
0
0
0
0
0
0
0
0
0
0
0
0
0
0
0
0
0
0
0
0
0
0
0
0
0
0
0
0
0
0
0
0
0
0
0
0
0
0
0
0
0
0
0
0
0
0
0
0
0
0
0
0
0
0
0
0
0
0
0
0
0
0
0
0
0
0
0
0
0
0
0
0
0
0
0
0
0
0
0
0
0
0
0
0
0
0
0
0
0
0
9
9
0
0
0
0
0
0
0
0
9
0
0
0
0
0
0
0
0
0
0
0
0
0
0
0
0
0
0
0
0
0
0
0
0
0
0
0
0
0
0
0
0
0
0
0
0
0
0
0
0
0
0
0
0
0
0
0
0
0
0
0
0
0
0
0
0
0
0
0
0
0
0
0
0
0
0
0
0
0
0
0
0
0
0
CELL_DATA 192
SCALARS SlipSystem integer
LOOKUP_TABLE default
3
3
3
3
1
1
1
1
2
2
2
2
2
2
2
2
1
1
3
3
2
2
2
2
1
1
2
3
1
13
3
1
3
3
3
2
2
1
3
3
3
3
1
1
3
3
1
1
1
1
1
1
1
1
1
1
1
1
1
1
1
1
1
1
1
1
2
2
2
2
2
2
2
2
1
1
2
2
2
3
2
2
2
2
2
2
2
2
2
2
2
2
2
2
2
2
2
2
2
1
1
1
1
1
1
1
1
3
2
1
3
3
3
3
2
2
2
2
2
2
2
2
1
2
2
2
2
1
1
1
1
1
1
13
13
1
1
2
2
2
2
2
2
1
1
1
1
1
1
1
2
2
2
2
1
1
1
1
3
3
1
2
2
2
1
1
1
1
1
1
1
1
3
1
1
1
1
1
1
1
1
1
1
1
1
3
1
1
1
1
1
1
