# vtk DataFile Version 1.0
dislocation microstructure
ASCII
DATASET POLYDATA
POINTS 163 float
-1.407136E+02		-2.213016E+02		3.620151E+02
-4.069171E+02		1.959506E+01		3.873221E+02
-2.678171E+02		5.735064E+02		-3.056893E+02
-3.585793E+02		4.159045E+02		-5.732522E+01
2.435975E+02		5.088909E+02		-7.524885E+02
-3.645297E+01		4.790810E+02		-4.426281E+02
1.137360E+01		4.804267E+01		-5.941627E+01
2.977420E+02		-2.208350E+02		-7.690702E+01
-3.705953E+02		-3.364613E+02		7.070566E+02
-2.633774E+02		-5.962946E+01		3.230069E+02
-5.059046E+01		-1.177741E+02		1.683646E+02
-3.709113E+00		-3.770962E+02		3.808053E+02
-5.645235E+02		3.793574E+02		1.851661E+02
-3.703694E+02		9.044315E+01		2.799262E+02
-5.304416E+02		4.354699E+02		9.497178E+01
-5.136564E+02		1.737037E+02		3.399526E+02
-4.002894E+02		6.227393E+02		-2.224499E+02
-1.296146E+02		4.379697E+02		-3.083551E+02
3.132033E+01		-1.863970E+02		1.550767E+02
-2.594066E+02		2.052232E+02		5.418340E+01
5.559540E+02		2.224913E+01		-5.782031E+02
6.021915E+02		-3.324134E+02		-2.697781E+02
-9.943729E+01		-2.899623E+02		3.893996E+02
3.188077E+01		-5.505567E+02		5.186760E+02
-2.457631E+02		2.346175E+02		1.114560E+01
-1.949524E+01		-1.452330E+02		1.647282E+02
-2.599104E+02		-5.821534E+01		3.181257E+02
-3.347951E+02		-1.035003E+01		3.451452E+02
-1.799950E+02		-1.389645E+02		3.189594E+02
-1.533195E+02		-1.811288E+02		3.344482E+02
-3.400611E+02		-4.461244E+01		3.846735E+02
-3.680834E+02		1.511969E+01		3.529637E+02
-3.519713E+02		5.280252E+02		-1.760539E+02
-3.198312E+02		5.625958E+02		-2.427646E+02
-1.390278E+02		1.983826E+02		-5.935478E+01
-3.691051E+02		4.794906E+02		-1.103855E+02
-3.688869E+02		4.486841E+02		-7.979721E+01
1.706493E+02		3.761449E+02		-5.467942E+02
2.454534E+02		3.899315E+02		-6.353849E+02
2.843503E+02		4.322476E+02		-7.165979E+02
8.163830E+01		3.815979E+02		-4.632362E+02
7.809176E+00		4.176543E+02		-4.254635E+02
2.022619E+02		-2.558152E+01		-1.766803E+02
8.758617E+01		4.216069E+01		-1.297469E+02
5.974436E+01		1.832490E+01		-7.806926E+01
2.831139E+02		-1.132216E+02		-1.698923E+02
3.209147E+02		-1.858933E+02		-1.350214E+02
-3.751551E+02		-1.559474E+02		5.311025E+02
-3.964167E+02		-2.301807E+02		6.265975E+02
-4.000322E+02		-2.762999E+02		6.763321E+02
-3.924886E+02		-3.076456E+02		7.001342E+02
-3.526621E+02		-8.370747E+01		4.363696E+02
3.048144E+02		-1.471349E+02		-1.576795E+02
-2.383877E+01		4.491240E+02		-4.252852E+02
3.073054E+01		-2.669402E+02		2.362096E+02
1.111550E+01		-1.947251E+02		1.836096E+02
-1.199252E+01		-1.521121E+02		1.641047E+02
3.786880E+01		-3.356182E+02		2.977494E+02
2.642503E+01		-3.676541E+02		3.412291E+02
-5.359422E+02		3.528840E+02		1.830582E+02
-3.876257E+02		2.105073E+02		1.771185E+02
-3.609604E+02		1.471124E+02		2.138480E+02
-3.574696E+02		1.128908E+02		2.445787E+02
-4.626380E+02		3.609638E+02		1.016741E+02
-4.902517E+02		4.042119E+02		8.603972E+01
-4.905446E+02		2.335793E+02		2.569653E+02
-4.946475E+02		1.974706E+02		2.971769E+02
-2.608903E+02		5.982389E+02		-3.373486E+02
-3.149938E+02		6.464979E+02		-3.315041E+02
-3.907402E+02		6.738366E+02		-2.830964E+02
-1.689677E+02		5.370285E+02		-3.680607E+02
-1.266254E+02		4.800359E+02		-3.534105E+02
-8.554454E+01		2.866649E+01		5.687805E+01
-2.845549E+02		5.773140E+02		-2.927591E+02
1.871012E+01		5.947407E+01		-7.818419E+01
4.524657E+01		-1.700861E+02		1.248395E+02
-1.570042E+02		1.206557E+02		3.634847E+01
-2.026159E+02		1.694871E+02		3.312881E+01
-2.310903E+02		1.930387E+02		3.805160E+01
6.389138E+02		-1.789702E+02		-4.599436E+02
6.244735E+02		-8.736499E+01		-5.371086E+02
6.050988E+02		-3.085247E+01		-5.742463E+02
6.446001E+02		-2.677676E+02		-3.768325E+02
6.339429E+02		-3.100610E+02		-3.238819E+02
8.613871E+00		-4.173109E+02		4.086971E+02
-3.841130E+01		-3.504786E+02		3.888899E+02
-6.627368E+01		-3.171133E+02		3.833870E+02
4.157206E+01		-4.899868E+02		4.484147E+02
4.529933E+01		-5.263654E+02		4.810660E+02
-5.815548E+01		7.871095E+01		-2.055547E+01
-1.094023E+02		1.672912E+02		-5.788893E+01
-1.763336E+02		2.286395E+02		-5.230598E+01
-2.250605E+02		2.514385E+02		-2.637807E+01
4.859744E+01		-1.201019E+02		7.150448E+01
1.239493E+02		2.947303E+01		-1.534223E+02
-2.109929E+02		-1.017286E+02		3.127215E+02
-4.956945E+02		2.715113E+02		2.241831E+02
-5.024910E+02		2.954187E+02		2.070723E+02
-4.183426E+02		2.694724E+02		1.488702E+02
-4.396868E+02		3.112832E+02		1.284036E+02
-3.374639E+02		5.470904E+02		-2.096265E+02
-3.628180E+02		5.056649E+02		-1.428469E+02
1.305964E+02		3.748903E+02		-5.054867E+02
2.082371E+02		3.807783E+02		-5.890154E+02
1.559517E+02		1.072044E+01		-1.666721E+02
2.445520E+02		-6.679885E+01		-1.777531E+02
-3.864476E+02		-1.919836E+02		5.784312E+02
-3.638624E+02		-1.202676E+02		4.841300E+02
-3.917610E+02		-2.106084E+02		6.023694E+02
-3.997084E+02		-2.515257E+02		6.512342E+02
-3.462700E+02		-6.275116E+01		4.090211E+02
-3.582862E+02		-1.022372E+02		4.605234E+02
2.284788E+01		-2.328849E+02		2.100370E+02
3.653383E+01		-3.006928E+02		2.641590E+02
-3.733280E+02		1.803542E+02		1.929738E+02
-4.023964E+02		2.393717E+02		1.630247E+02
-2.003235E+02		2.416056E+02		-4.128213E+01
-2.146383E+02		5.752614E+02		-3.606231E+02
-1.175556E+02		7.257739E+01		4.497826E+01
3.920391E+01		-8.162848E+01		4.242458E+01
-7.581247E+01		1.165071E+01		6.416176E+01
-8.698512E+01		1.389587E+02		-5.197357E+01
-1.786619E+02		1.451239E+02		3.353804E+01
-1.367522E+02		9.642031E+01		4.033188E+01
6.328978E+02		-1.340201E+02		-4.988776E+02
6.435808E+02		-2.234607E+02		-4.201202E+02
-1.403776E+01		-3.832856E+02		3.973234E+02
2.742862E+01		-4.529931E+02		4.255645E+02
-3.033299E+02		5.720133E+02		-2.686834E+02
-6.748457E+01		1.083198E+02		-4.083525E+01
-3.808449E+02		-1.738499E+02		5.546948E+02
-3.694821E+02		-1.381241E+02		5.076062E+02
-9.955679E+01		4.907373E+01		5.048306E+01
5.835124E+02		1.443737E-01		-5.836567E+02
6.172830E+02		-6.066611E+01		-5.566169E+02
-3.268133E+02		-2.027851E+01		3.470918E+02
-2.668556E+02		5.922763E+02		-3.254208E+02
6.492570E+01		3.778314E+01		-1.027088E+02
6.205382E+02		-3.251002E+02		-2.954380E+02
6.415732E+02		-2.901693E+02		-3.514039E+02
2.691053E+02		4.035583E+02		-6.726637E+02
2.732555E+02		4.760875E+02		-7.493430E+02
4.511466E+01		3.947179E+02		-4.398326E+02
1.320065E+01		-1.595333E+02		1.463326E+02
-3.537116E+02		6.669160E+02		-3.132044E+02
-4.135429E+02		6.567025E+02		-2.431597E+02
-2.332134E+02		-7.885990E+01		3.120733E+02
-5.198487E+02		3.317741E+02		1.880747E+02
-4.490738E+02		3.317288E+02		1.173450E+02
-4.310620E+02		2.937337E+02		1.373283E+02
-2.913358E+02		-3.209484E+01		3.234306E+02
4.888894E+01		-1.413132E+02		9.242422E+01
-1.447173E+02		5.088846E+02		-3.641674E+02
-1.178019E+02		4.516463E+02		-3.338445E+02
6.447652E+02		-2.458241E+02		-3.989411E+02
3.205608E+02		-2.154990E+02		-1.050618E+02
6.290590E+02		-1.109008E+02		-5.181581E+02
1.068528E+02		3.769956E+02		-4.838484E+02
-2.882725E+02		6.244755E+02		-3.362030E+02
3.053305E+01		-1.513910E+02		1.208580E+02
2.641684E+02		-8.983955E+01		-1.743288E+02
-2.070229E+01		-1.443112E+02		1.650135E+02
2.268627E+02		3.853041E+02		-6.121668E+02
LINES 150 450
2		0		29
2		1		31
2		2		136
2		3		36
2		4		141
2		5		53
2		6		74
2		7		155
2		8		50
2		9		26
2		10		161
2		11		58
2		12		59
2		13		62
2		14		64
2		15		66
2		16		145
2		17		153
2		18		75
2		19		78
2		20		133
2		21		138
2		22		86
2		23		88
2		24		92
2		25		143
2		26		146
2		26		150
2		27		135
2		27		31
2		28		95
2		28		29
2		30		135
2		30		110
2		32		100
2		32		101
2		33		100
2		33		128
2		34		91
2		34		90
2		35		101
2		35		36
2		37		102
2		37		103
2		38		140
2		38		162
2		39		140
2		39		141
2		40		142
2		40		157
2		41		142
2		41		53
2		42		104
2		42		105
2		43		137
2		43		94
2		44		137
2		45		52
2		45		160
2		46		52
2		46		155
2		47		130
2		47		131
2		48		108
2		48		109
2		49		109
2		49		50
2		51		110
2		51		111
2		54		112
2		54		113
2		55		112
2		55		56
2		56		161
2		57		113
2		57		58
2		59		147
2		60		114
2		60		115
2		61		114
2		61		62
2		63		64
2		63		148
2		65		96
2		65		66
2		67		117
2		67		136
2		68		144
2		68		158
2		69		144
2		69		145
2		70		117
2		70		152
2		71		152
2		71		153
2		72		132
2		72		120
2		73		136
2		73		128
2		75		151
2		76		122
2		76		123
2		77		122
2		77		78
2		79		124
2		79		125
2		80		134
2		80		156
2		81		134
2		81		133
2		82		139
2		82		154
2		83		139
2		83		138
2		84		126
2		84		127
2		85		126
2		85		86
2		87		127
2		87		88
2		89		129
2		90		121
2		91		116
2		92		116
2		93		151
2		93		119
2		94		104
2		95		146
2		96		97
2		97		147
2		98		115
2		98		149
2		99		149
2		99		148
2		102		157
2		103		162
2		105		160
2		106		108
2		106		130
2		107		111
2		107		131
2		118		123
2		118		132
2		121		129
2		124		156
2		125		154
2		135		150
2		136		158
2		143		159
2		151		159
POINT_DATA 163
scalars NodeType integer
LOOKUP_TABLE default
7
7
7
7
7
7
7
7
7
7
7
7
7
7
7
7
7
7
7
7
7
7
7
7
7
7
0
0
0
0
0
0
0
0
0
0
0
0
0
0
0
0
0
0
9
0
0
0
0
0
0
0
0
0
0
0
0
0
0
0
0
0
0
0
0
0
0
0
0
0
0
0
0
0
9
0
0
0
0
0
0
0
0
0
0
0
0
0
0
9
0
0
0
0
0
0
0
0
0
0
0
0
0
0
0
0
0
0
0
0
0
0
0
0
0
0
0
0
0
9
9
0
0
0
0
0
0
0
0
0
0
0
0
0
0
0
0
0
0
0
0
0
0
0
0
0
0
0
0
0
0
0
0
0
0
0
0
0
0
0
0
0
0
CELL_DATA 150
SCALARS SlipSystem integer
LOOKUP_TABLE default
3
3
3
3
1
1
1
1
2
2
2
2
2
2
2
2
1
1
3
3
2
2
2
2
1
1
3
1
3
3
3
3
2
2
3
3
3
3
1
1
3
3
1
1
1
1
1
1
1
1
1
1
1
1
1
1
1
1
1
1
1
2
2
2
2
2
2
2
2
2
2
2
2
2
2
2
2
2
2
2
2
2
2
2
2
1
1
1
1
1
1
1
1
1
1
3
3
3
3
3
3
3
3
3
2
2
2
2
2
2
2
2
2
2
2
2
2
2
2
2
1
1
1
1
13
13
1
3
2
2
2
2
2
2
1
1
1
2
2
2
2
3
3
1
2
2
1
1
1
1
