# vtk DataFile Version 1.0
dislocation microstructure
ASCII
DATASET POLYDATA
POINTS 296 float
-1.407136E+02		-2.213016E+02		3.620151E+02
-4.069171E+02		1.959506E+01		3.873221E+02
-2.678171E+02		5.735064E+02		-3.056893E+02
-3.585793E+02		4.159045E+02		-5.732522E+01
2.435975E+02		5.088909E+02		-7.524885E+02
-3.645297E+01		4.790810E+02		-4.426281E+02
1.137360E+01		4.804267E+01		-5.941627E+01
2.977420E+02		-2.208350E+02		-7.690702E+01
-3.705953E+02		-3.364613E+02		7.070566E+02
-2.633774E+02		-5.962946E+01		3.230069E+02
-5.059046E+01		-1.177741E+02		1.683646E+02
-3.709113E+00		-3.770962E+02		3.808053E+02
-5.645235E+02		3.793574E+02		1.851661E+02
-3.703694E+02		9.044315E+01		2.799262E+02
-5.304416E+02		4.354699E+02		9.497178E+01
-5.136564E+02		1.737037E+02		3.399526E+02
-4.002894E+02		6.227393E+02		-2.224499E+02
-1.296146E+02		4.379697E+02		-3.083551E+02
3.132033E+01		-1.863970E+02		1.550767E+02
-2.594066E+02		2.052232E+02		5.418340E+01
5.559540E+02		2.224913E+01		-5.782031E+02
6.021915E+02		-3.324134E+02		-2.697781E+02
-9.943729E+01		-2.899623E+02		3.893996E+02
3.188077E+01		-5.505567E+02		5.186760E+02
-2.457631E+02		2.346175E+02		1.114560E+01
-1.949524E+01		-1.452330E+02		1.647282E+02
-2.596741E+02		-1.886415E+02		4.483156E+02
-8.753068E+01		-3.176994E+02		4.052301E+02
-3.645079E+02		-1.246215E+02		4.891294E+02
-2.514967E+02		6.170267E+02		-3.655300E+02
1.358086E+02		-1.181429E+02		-1.766572E+01
-3.619465E+02		-6.976220E+01		4.317087E+02
-6.480857E+01		-4.802573E+02		5.450658E+02
-5.256347E+02		7.772572E+02		-2.516226E+02
1.173995E+02		3.116463E+02		-4.290459E+02
-4.203156E+02		-1.945189E+02		6.148345E+02
7.232936E+02		-2.233300E+02		-4.999637E+02
-3.444319E+02		-3.635984E+02		7.080304E+02
7.028201E+02		-1.548212E+02		-5.479989E+02
-2.790311E+02		3.249833E+02		-4.595218E+01
-5.094418E+02		7.910022E+02		-2.815604E+02
-2.956696E+02		2.710226E+02		2.464701E+01
2.528751E+02		4.623400E+02		-7.152151E+02
-4.820330E+01		8.632498E+02		-8.150465E+02
-3.547304E+02		3.310297E+02		2.370066E+01
6.377988E+02		-1.067328E+01		-6.271255E+02
5.750173E+02		-5.708092E+02		-4.208045E+00
-5.196890E+02		-2.115505E+02		7.312395E+02
-5.840021E+02		-2.324946E+02		8.164967E+02
-3.686721E+02		-4.478245E+02		8.164967E+02
-3.342631E+02		-3.988921E+02		7.331552E+02
-4.480977E+02		2.406713E+02		2.074263E+02
1.311670E+02		-3.697515E+02		2.385845E+02
3.059828E+02		-4.417919E+02		1.358091E+02
4.117517E+02		-5.139374E+02		1.021857E+02
-5.068734E+01		-5.815627E+02		6.322500E+02
-4.247608E+02		5.123356E+02		-8.757488E+01
6.753533E+02		-4.057909E+02		-2.695624E+02
2.744756E+02		-1.872709E+02		-8.720472E+01
-4.709241E+02		4.494092E+02		2.151488E+01
-5.642285E+02		6.816188E+02		-1.173903E+02
-3.247638E+02		1.039233E+03		-7.144689E+02
1.449783E+02		3.081141E+02		-4.530924E+02
-3.678178E+02		-4.397474E+01		4.117925E+02
-3.786403E+02		-1.566689E+02		5.353091E+02
6.748263E+02		5.295008E+01		-7.277764E+02
6.867984E+02		-4.503965E+02		-2.364019E+02
6.797265E+01		-1.216427E+02		5.367007E+01
-2.363908E+02		-1.774074E+02		4.137982E+02
1.158940E+02		-3.610936E+02		2.451996E+02
1.943509E+02		3.202290E+02		-5.145799E+02
3.654699E+02		-1.021575E+03		6.561047E+02
-1.722937E+02		-1.882689E+02		3.605626E+02
7.402654E+02		-3.241855E+02		-4.160800E+02
3.831471E+02		-4.969594E+02		1.138124E+02
-3.102398E+02		-1.101468E+02		4.203866E+02
-1.657103E+01		2.218292E+02		-2.052582E+02
-3.292557E+02		2.956549E+02		3.360074E+01
8.126504E+01		-9.273735E+01		1.147231E+01
-1.461256E+01		-2.031850E+02		2.177975E+02
-2.513931E+02		5.197960E+01		1.994135E+02
3.533764E+02		-4.772037E+02		1.238272E+02
-2.106980E+02		3.778796E+02		-1.671816E+02
2.135121E+01		-3.918591E+02		3.705079E+02
6.227851E+02		-3.559901E+02		-2.667950E+02
-1.803140E+02		9.589999E+02		-7.786859E+02
1.074205E+02		-3.845211E+02		2.771006E+02
-2.313049E+02		3.764222E+02		-1.451173E+02
7.417448E+02		-5.521975E+02		-1.895472E+02
-4.929942E+02		3.319135E+02		1.610807E+02
-4.612076E+01		-5.176163E+02		5.637371E+02
-1.492564E+02		9.388919E+02		-7.896354E+02
-1.234491E+02		4.870246E+02		-3.635755E+02
-5.912733E+00		3.825121E+02		-3.765993E+02
5.352480E+01		-3.993158E+02		3.457910E+02
-3.760584E+01		-6.148110E+02		6.524168E+02
5.780163E+02		2.149751E+01		-5.995138E+02
1.749375E+02		-3.807165E+02		2.057790E+02
6.623336E+02		3.922107E+01		-7.015546E+02
8.750128E+01		3.208942E+02		-4.083955E+02
-3.908927E+02		3.827007E+02		8.192001E+00
2.102724E+02		3.342050E+02		-5.444774E+02
-4.173011E+02		5.717351E+02		-1.544340E+02
-3.355161E+02		6.551557E+01		2.700005E+02
6.951280E+02		7.857373E+01		-7.737017E+02
8.262752E+01		-3.966354E+02		3.140079E+02
-5.369612E+02		7.625822E+02		-2.256210E+02
-4.427388E+02		4.433603E+02		-6.215358E-01
-1.536069E+02		3.644597E+02		-2.108529E+02
-3.897210E+02		-1.707009E+02		5.604219E+02
-6.256439E+02		7.655740E+02		-1.399301E+02
6.363416E+02		-5.710104E+02		-6.533114E+01
-5.162016E+01		-5.074495E+02		5.590697E+02
6.913791E+02		-1.208822E+02		-5.704969E+02
6.818733E+02		-9.523419E+01		-5.866391E+02
1.623418E+02		-1.321270E+02		-3.021481E+01
-5.183376E+02		6.550876E+02		-1.367500E+02
-3.093720E+02		7.192623E+02		-4.098903E+02
-1.798806E+01		-5.252697E+02		5.432577E+02
-5.280181E+02		5.652889E+02		-3.727078E+01
-5.323178E+00		1.965567E+02		-1.912335E+02
7.110026E+02		1.054940E+02		-8.164967E+02
-1.881560E+02		3.761334E+02		-1.879774E+02
4.413469E+02		-5.294089E+02		8.806207E+01
-2.838885E+02		5.956023E+02		-3.117138E+02
5.406280E+02		-5.649752E+02		2.434712E+01
3.355848E+02		-9.950334E+02		6.594485E+02
-3.448623E+02		-4.299146E+02		7.747768E+02
1.060013E+02		-8.047864E+02		6.987851E+02
-9.908038E+01		-3.563584E+02		4.554387E+02
-2.867352E+02		6.888182E+02		-4.020829E+02
7.143619E+02		-3.906449E+02		-3.237169E+02
-4.101485E+02		4.077032E+02		2.445277E+00
7.077590E+02		-5.362985E+02		-1.714605E+02
-1.180671E+02		3.432501E+02		-2.251830E+02
3.075645E+01		-2.768100E+02		2.460536E+02
-5.581821E+02		6.504959E+02		-9.231378E+01
-2.952691E+02		-7.324882E+01		3.685179E+02
-2.457705E+02		2.346807E+02		1.108985E+01
-3.496865E+01		2.542273E+02		-2.192586E+02
7.368305E+02		-3.582293E+02		-3.786012E+02
1.716806E+02		3.108724E+02		-4.825530E+02
8.419767E+01		-7.825976E+02		6.983999E+02
2.489341E+02		4.854913E+02		-7.344254E+02
7.280939E+02		-3.764948E+02		-3.515991E+02
-2.484130E+01		-1.690641E+02		1.939054E+02
-4.600105E+02		-2.074897E+02		6.675002E+02
-2.112776E+02		9.776835E+02		-7.664059E+02
-3.100169E+02		5.606313E+01		2.539538E+02
-3.628556E+02		-4.451033E+02		8.079589E+02
-5.434343E+02		6.854877E+02		-1.420534E+02
-2.103203E+02		-1.752249E+02		3.855451E+02
-2.589130E+02		-2.372835E+02		4.961965E+02
-1.811240E+02		1.089245E+02		7.219949E+01
3.296224E+02		-4.596083E+02		1.299859E+02
1.129566E+01		1.213247E+02		-1.326203E+02
-2.413725E+02		-2.683762E+02		5.097487E+02
4.712550E+02		-5.428490E+02		7.159407E+01
-5.458205E+02		7.467579E+02		-2.009374E+02
-3.753596E+02		3.613778E+02		1.398180E+01
-4.871730E+02		8.012243E+02		-3.140513E+02
-4.915800E+02		1.747392E+02		3.168409E+02
1.064364E+02		-1.024682E+02		-3.968146E+00
-4.791873E+02		6.177075E+02		-1.385202E+02
-2.914289E+02		2.370264E+02		5.440255E+01
-2.915222E+02		-1.694786E+02		4.610008E+02
-5.432682E+02		-2.115897E+02		7.548578E+02
-2.818534E+02		3.044682E+02		-2.261484E+01
-3.606102E+02		-9.807404E+01		4.586842E+02
3.792769E+02		-1.034937E+03		6.556599E+02
-6.048808E+02		7.440582E+02		-1.391774E+02
-4.287549E+02		4.426163E+02		-1.386142E+01
6.634718E+02		-5.659025E+02		-9.756939E+01
-2.080707E+02		-3.095879E+02		5.176586E+02
-5.721215E+02		-2.187953E+02		7.909168E+02
-4.535934E+02		2.061335E+02		2.474599E+02
8.660587E+01		-3.346726E+02		2.480668E+02
-2.174700E+01		-6.454334E+02		6.671804E+02
-5.483538E+01		4.647777E+02		-4.099423E+02
-9.647312E+01		-4.150562E+02		5.115294E+02
2.579371E+01		-7.156699E+02		6.898762E+02
-4.930276E+02		5.074886E+02		-1.446100E+01
-5.770666E+01		-5.379203E+02		5.956270E+02
-2.225109E+02		6.136182E+01		1.611491E+02
-3.376764E+02		7.491450E+02		-4.114686E+02
6.911511E+02		-3.932282E+02		-2.979229E+02
1.732139E+02		-8.658355E+02		6.926216E+02
-3.227756E+02		6.086233E+02		-2.858477E+02
6.918313E+02		-4.704202E+02		-2.214111E+02
-8.971482E+01		-3.412253E+02		4.309401E+02
7.153096E+02		-1.948713E+02		-5.204383E+02
7.929730E-01		-6.813727E+02		6.805797E+02
-4.049903E+02		7.924554E+02		-3.874651E+02
-1.119085E+02		-3.713506E+02		4.832591E+02
-2.859618E+02		5.122988E+01		2.347319E+02
6.289588E+01		-7.597915E+02		6.968956E+02
-4.025375E+02		-1.828742E+02		5.854116E+02
-5.616493E+02		-2.140526E+02		7.757019E+02
-5.491220E+02		6.179353E+02		-6.881333E+01
-5.061137E+02		4.501890E+02		5.592469E+01
-2.481800E+02		5.999820E+02		-3.518020E+02
-3.966495E+02		4.422709E+02		-4.562147E+01
6.675409E+00		-2.436512E+02		2.369758E+02
-1.982883E+02		7.970567E+01		1.185826E+02
-2.550782E+01		-1.400425E+02		1.655503E+02
-8.446439E+01		-4.399287E+02		5.243930E+02
2.335458E+02		3.833736E+02		-6.169194E+02
-5.531859E+02		7.300073E+02		-1.768214E+02
-3.791937E+02		7.803390E+02		-4.011452E+02
-3.058175E+02		-8.952391E+01		3.953414E+02
2.226219E+02		3.518614E+02		-5.744833E+02
3.579101E+01		3.483427E+02		-3.841338E+02
6.042992E+01		-1.751265E+02		1.146966E+02
-2.699357E+02		-1.986976E+02		4.686333E+02
6.437645E+01		-3.130754E+02		2.486989E+02
6.176264E+01		3.331585E+02		-3.949212E+02
-6.572345E+01		2.950328E+02		-2.293094E+02
-1.134330E+02		4.624211E+02		-3.489881E+02
-3.541067E+02		1.060107E+03		-7.060003E+02
6.653645E+02		-3.841124E+02		-2.812521E+02
4.329560E+01		-8.159877E+01		3.830317E+01
-2.047939E+02		5.756193E+02		-3.708254E+02
6.977054E+02		-4.936596E+02		-2.040457E+02
6.865257E+01		-1.604064E+02		9.175386E+01
2.810599E+00		6.926347E+01		-7.207407E+01
-3.531257E+02		6.097118E+02		-2.565861E+02
6.385703E+00		-5.339453E+02		5.275596E+02
-4.592052E+02		4.697187E+02		-1.051352E+01
6.307897E+02		1.172552E+01		-6.425153E+02
-2.813571E+02		2.715885E+02		9.768537E+00
-4.149308E+02		4.695915E+02		-5.466076E+01
-5.396637E+02		5.917142E+02		-5.205052E+01
-3.796583E+02		-1.529785E+01		3.949561E+02
-5.124729E+02		5.364922E+02		-2.401924E+01
8.252902E+02		-5.889235E+02		-2.363667E+02
6.906029E+00		1.562899E+02		-1.631960E+02
2.430321E+02		4.405409E+02		-6.835729E+02
-2.732498E+02		3.416869E+02		-6.843712E+01
-2.164832E+01		8.381450E+02		-8.164967E+02
7.370087E+02		-2.872562E+02		-4.497526E+02
-8.039050E+01		8.890915E+02		-8.087010E+02
-3.802877E+02		6.071992E+02		-2.269116E+02
-1.373334E+02		5.100018E+02		-3.726684E+02
-4.710909E+02		1.839856E+02		2.871053E+02
-4.628960E+02		8.050905E+02		-3.421944E+02
7.128337E+01		-1.431431E+02		7.185974E+01
-6.370779E+02		7.771358E+02		-1.400579E+02
-1.325304E+02		-3.654744E+02		4.980048E+02
7.688201E+02		-5.636064E+02		-2.052137E+02
6.080876E+02		-5.727006E+02		-3.538701E+01
6.497243E+02		2.677008E+01		-6.764943E+02
6.929730E+02		-5.545873E+02		-1.383857E+02
-1.666394E+02		-3.454627E+02		5.121021E+02
-1.141674E+02		9.144304E+02		-8.002630E+02
2.328178E+02		-3.870612E+02		1.542433E+02
-4.690458E+02		3.016451E+02		1.674007E+02
-4.234270E+02		5.457665E+02		-1.223396E+02
1.478279E+02		-8.437951E+02		6.959671E+02
2.950664E+02		-9.624382E+02		6.673717E+02
-2.509682E+02		3.680771E+02		-1.171089E+02
-4.796838E+02		-2.108428E+02		6.905266E+02
5.066495E+02		-5.557718E+02		4.912225E+01
-1.106480E+02		-3.809670E+02		4.916150E+02
-2.786410E+02		1.014582E+03		-7.359406E+02
-2.129986E+02		2.176412E+02		-4.642591E+00
-1.760557E+02		1.371102E+02		3.894554E+01
-3.064848E+02		-1.378560E+02		4.443408E+02
2.449340E+02		-1.646488E+02		-8.028524E+01
-4.541383E+02		2.707665E+02		1.833718E+02
-9.070461E+01		3.207437E+02		-2.300391E+02
-2.638942E+02		3.564922E+02		-9.259802E+01
-4.410573E+02		-2.031651E+02		6.442224E+02
2.710349E+02		-9.436972E+02		6.726623E+02
-2.442159E+02		9.962186E+02		-7.520027E+02
5.228930E+01		-8.593856E+01		3.364926E+01
-4.460379E+02		5.932911E+02		-1.472531E+02
6.181544E+02		9.165818E+00		-6.273202E+02
2.040381E+02		-3.803439E+02		1.763058E+02
1.889289E+02		-1.419117E+02		-4.701721E+01
-2.653704E+02		6.513686E+02		-3.859982E+02
-2.729377E+02		5.880486E+02		-3.151109E+02
-1.824652E+02		1.748070E+02		7.658227E+00
2.438451E+02		-9.226245E+02		6.787795E+02
8.032641E+02		-5.784764E+02		-2.247877E+02
6.650132E+02		-5.605129E+01		-6.089619E+02
-5.634050E+02		7.091257E+02		-1.457207E+02
7.304537E+02		-2.525287E+02		-4.779250E+02
1.986201E+02		-8.869708E+02		6.883507E+02
-1.681645E+02		5.451888E+02		-3.770243E+02
-5.286318E+02		3.615344E+02		1.670974E+02
2.388448E+02		4.143612E+02		-6.532060E+02
-4.301770E+02		8.015067E+02		-3.713297E+02
-3.818260E+01		4.222056E+02		-3.840230E+02
2.610342E+02		-4.058056E+02		1.447714E+02
2.139551E+02		-1.500200E+02		-6.393502E+01
9.374233E+00		9.049773E+01		-9.987196E+01
LINES 288 864
2		0		72
2		1		232
2		2		280
2		3		201
2		4		143
2		5		178
2		6		224
2		7		58
2		8		37
2		9		137
2		10		204
2		11		83
2		12		289
2		13		103
2		14		199
2		15		161
2		16		241
2		17		217
2		18		212
2		19		164
2		20		96
2		21		84
2		22		27
2		23		226
2		24		138
2		25		204
2		26		213
2		26		68
2		27		189
2		28		64
2		28		168
2		29		200
2		29		279
2		30		115
2		30		162
2		31		168
2		31		63
2		32		205
2		32		112
2		33		40
2		33		106
2		34		99
2		34		62
2		35		271
2		35		196
2		36		286
2		36		190
2		37		50
2		38		190
2		38		113
2		39		237
2		39		167
2		40		160
2		41		164
2		41		167
2		41		229
2		41		77
2		42		143
2		42		236
2		43		240
2		43		238
2		44		77
2		44		159
2		45		284
2		45		276
2		46		249
2		46		125
2		47		260
2		47		166
2		48		174
2		49		149
2		50		127
2		51		175
2		51		268
2		52		97
2		52		69
2		52		86
2		53		293
2		53		154
2		54		123
2		54		74
2		55		182
2		55		95
2		56		230
2		56		256
2		57		219
2		57		66
2		58		267
2		59		107
2		59		199
2		60		136
2		60		285
2		61		263
2		61		218
2		62		141
2		63		232
2		64		109
2		65		104
2		65		98
2		66		188
2		67		274
2		67		245
2		68		151
2		69		176
2		70		141
2		70		101
2		71		126
2		71		169
2		72		151
2		73		239
2		73		140
2		74		81
2		75		266
2		75		209
2		76		120
2		76		139
2		78		274
2		78		162
2		79		202
2		79		145
2		80		194
2		80		183
2		81		154
2		82		122
2		82		87
2		83		94
2		84		219
2		85		147
2		85		91
2		86		105
2		87		259
2		88		248
2		88		133
2		89		255
2		89		289
2		90		182
2		90		112
2		90		118
2		91		253
2		92		242
2		92		217
2		93		211
2		93		292
2		94		105
2		95		177
2		96		276
2		97		277
2		98		250
2		99		215
2		100		159
2		100		132
2		101		210
2		102		256
2		102		275
2		103		148
2		104		121
2		106		158
2		107		171
2		108		134
2		108		122
2		109		196
2		110		246
2		110		170
2		111		249
2		111		172
2		113		114
2		114		284
2		115		278
2		116		163
2		116		150
2		117		184
2		117		130
2		118		226
2		119		233
2		119		231
2		120		235
2		123		157
2		124		187
2		124		280
2		125		261
2		126		258
2		127		149
2		128		257
2		128		142
2		129		193
2		129		189
2		130		279
2		131		144
2		131		185
2		132		171
2		133		251
2		133		222
2		134		269
2		135		214
2		135		202
2		136		198
2		137		209
2		138		264
2		138		229
2		139		216
2		140		144
2		142		195
2		145		204
2		146		271
2		146		260
2		147		273
2		148		194
2		150		285
2		152		213
2		152		156
2		153		265
2		153		203
2		155		295
2		155		235
2		156		173
2		157		261
2		158		207
2		160		244
2		161		243
2		163		275
2		165		266
2		165		213
2		166		197
2		170		285
2		171		227
2		171		201
2		172		251
2		173		252
2		174		197
2		175		243
2		176		214
2		177		191
2		178		292
2		179		262
2		179		205
2		180		195
2		180		191
2		181		233
2		181		227
2		183		203
2		184		208
2		185		219
2		186		287
2		186		257
2		187		225
2		188		222
2		192		291
2		192		208
2		193		262
2		193		247
2		198		231
2		200		280
2		200		221
2		201		230
2		206		290
2		206		210
2		207		285
2		211		215
2		212		223
2		216		269
2		220		274
2		221		288
2		223		245
2		224		295
2		225		241
2		228		250
2		228		276
2		234		283
2		236		290
2		237		270
2		239		286
2		240		253
2		242		288
2		244		291
2		247		252
2		248		283
2		254		293
2		254		277
2		255		268
2		258		272
2		259		270
2		263		273
2		264		281
2		265		281
2		267		294
2		272		282
2		278		294
2		282		287
POINT_DATA 296
scalars NodeType integer
LOOKUP_TABLE default
7
7
7
7
7
7
7
7
7
7
7
7
7
7
7
7
7
7
7
7
7
7
7
7
7
7
0
0
0
0
0
0
0
0
0
0
0
0
0
0
0
0
0
0
0
0
0
0
8
8
0
0
0
0
0
0
0
0
0
0
0
0
0
0
0
0
0
0
0
0
0
0
0
0
0
0
0
0
0
0
0
0
0
0
0
0
0
0
0
0
0
0
0
0
0
0
0
0
0
0
0
0
0
0
0
0
0
0
0
0
0
0
0
0
0
0
0
0
0
0
0
8
0
0
0
0
0
0
0
0
0
0
0
0
0
0
0
0
0
0
0
0
0
0
0
0
0
0
0
0
0
0
0
0
0
0
0
0
0
0
0
0
0
0
0
0
0
0
0
8
0
0
0
0
0
0
0
0
0
0
0
0
0
0
0
0
0
0
0
0
0
0
0
0
0
0
0
0
0
0
0
0
0
0
0
0
0
0
0
0
0
0
0
0
0
0
0
0
8
0
9
0
0
0
9
0
0
0
0
0
0
0
0
0
8
0
0
0
8
0
0
0
0
0
0
0
8
0
0
0
0
0
0
0
0
0
0
0
0
0
0
0
0
0
0
0
0
0
0
0
0
0
0
0
0
0
0
0
0
0
0
0
0
0
0
0
0
0
0
0
0
0
0
0
0
0
CELL_DATA 288
SCALARS SlipSystem integer
LOOKUP_TABLE default
3
3
3
3
1
1
1
1
2
2
2
2
2
2
2
2
1
1
3
3
2
2
2
2
1
1
3
3
2
3
3
3
3
1
1
3
3
3
3
3
3
1
1
3
3
1
1
2
1
1
3
3
3
3
3
3
3
1
1
1
1
3
3
1
1
1
1
3
3
3
2
2
2
2
1
3
2
1
1
1
1
1
1
1
1
3
3
1
2
2
3
3
1
1
1
3
3
3
3
3
3
3
3
3
1
1
1
1
3
1
1
1
2
2
3
3
1
1
3
3
2
2
1
3
3
2
2
1
1
2
3
2
2
2
2
1
3
2
1
1
1
1
1
2
1
2
1
3
1
3
3
1
1
1
2
3
3
2
3
3
3
1
1
1
1
1
1
1
1
1
3
3
2
3
3
3
1
1
1
1
1
2
1
1
2
2
3
1
1
3
1
3
3
3
3
3
2
2
3
3
1
1
3
3
3
1
2
1
1
1
2
2
3
3
1
1
3
3
2
1
2
2
3
1
3
2
1
1
3
2
3
1
1
3
3
1
1
3
3
2
3
1
1
1
1
3
3
3
3
1
3
2
1
1
1
1
3
1
3
3
13
1
3
3
1
3
3
2
1
3
1
1
1
3
1
2
1
1
2
1
3
1
2
2
1
1
1
1
