# vtk DataFile Version 1.0
dislocation microstructure
ASCII
DATASET POLYDATA
POINTS 270 float
-1.407136E+02		-2.213016E+02		3.620151E+02
-4.069171E+02		1.959506E+01		3.873221E+02
-2.678171E+02		5.735064E+02		-3.056893E+02
-3.585793E+02		4.159045E+02		-5.732522E+01
2.435975E+02		5.088909E+02		-7.524885E+02
-3.645297E+01		4.790810E+02		-4.426281E+02
1.137360E+01		4.804267E+01		-5.941627E+01
2.977420E+02		-2.208350E+02		-7.690702E+01
-3.705953E+02		-3.364613E+02		7.070566E+02
-2.633774E+02		-5.962946E+01		3.230069E+02
-5.059046E+01		-1.177741E+02		1.683646E+02
-3.709113E+00		-3.770962E+02		3.808053E+02
-5.645235E+02		3.793574E+02		1.851661E+02
-3.703694E+02		9.044315E+01		2.799262E+02
-5.304416E+02		4.354699E+02		9.497178E+01
-5.136564E+02		1.737037E+02		3.399526E+02
-4.002894E+02		6.227393E+02		-2.224499E+02
-1.296146E+02		4.379697E+02		-3.083551E+02
3.132033E+01		-1.863970E+02		1.550767E+02
-2.594066E+02		2.052232E+02		5.418340E+01
5.559540E+02		2.224913E+01		-5.782031E+02
6.021915E+02		-3.324134E+02		-2.697781E+02
-9.943729E+01		-2.899623E+02		3.893996E+02
3.188077E+01		-5.505567E+02		5.186760E+02
-2.457631E+02		2.346175E+02		1.114560E+01
-1.949524E+01		-1.452330E+02		1.647282E+02
-8.551224E+01		-1.605179E+02		2.460301E+02
6.297903E+02		2.967255E+01		-6.594628E+02
-4.696317E+02		4.116758E+00		4.655149E+02
-1.067831E+02		-2.119731E+02		3.187562E+02
-1.732136E+02		1.533133E+02		1.990038E+01
-4.457164E+02		-8.788352E-01		4.465952E+02
1.353997E+02		-3.668057E+02		2.314061E+02
-3.702176E+02		6.292932E+02		-2.590756E+02
-3.791156E+02		2.310107E+02		1.481050E+02
-2.860495E+02		5.831881E+02		-2.971386E+02
-4.054863E+02		2.411161E+02		1.643702E+02
7.552765E+02		-5.229114E+01		-7.029853E+02
-5.168568E+02		4.876091E+02		2.924770E+01
1.166229E+02		5.842201E+02		-7.008430E+02
-1.195373E+02		-1.503566E+02		2.698938E+02
6.046149E+02		-5.558797E+01		-5.490269E+02
-4.172421E+01		-1.195070E+02		1.612313E+02
6.633407E+02		-2.241871E+02		-4.391536E+02
2.319419E+02		-1.244885E+02		-1.074534E+02
6.132198E+02		-8.191299E+01		-5.313068E+02
6.647093E+02		1.105844E+02		-7.752937E+02
-5.656705E+02		-2.923945E+01		5.949100E+02
-5.694368E+02		-1.574628E+02		7.268996E+02
-4.823978E+02		-2.925063E+02		7.749040E+02
-4.090901E+02		-3.325133E+02		7.416035E+02
-5.159118E+02		2.072617E+02		3.086501E+02
6.504342E+02		-1.829681E+02		-4.674661E+02
6.304929E+02		-1.277301E+02		-5.027628E+02
-2.984597E+02		9.783234E+02		-6.798637E+02
-5.178315E+02		-2.580982E+02		7.759297E+02
8.310397E+02		-3.066794E+02		-5.243603E+02
2.203899E+02		-4.402877E+02		2.198978E+02
2.094240E+02		-5.046726E+02		2.952486E+02
-5.306193E+02		3.690691E+02		1.615502E+02
-3.895290E+02		5.791534E+02		-1.896244E+02
1.539817E+01		4.109552E+02		-4.263534E+02
-2.851077E+01		4.557499E+02		-4.272391E+02
-5.439165E+02		5.287293E+02		1.518721E+01
-4.788098E+02		4.266694E+02		5.214045E+01
1.406821E+02		4.344324E+02		-5.751145E+02
-4.996493E+02		4.600644E+02		3.958484E+01
8.371408E+02		-2.374492E+02		-5.996917E+02
-2.658196E+02		9.572691E+02		-6.914495E+02
-4.496940E+02		3.781744E+02		7.151964E+01
6.151850E+01		6.600143E+02		-7.215328E+02
3.842356E+02		-4.645527E+02		8.031707E+01
-1.742175E+02		-1.296822E+02		3.038998E+02
-2.857300E+02		6.090514E+02		-3.233214E+02
-1.520467E+02		5.005529E+02		-3.485061E+02
6.650974E+02		-4.681999E+02		-1.968975E+02
-9.825621E+01		1.949787E+02		-9.672254E+01
-2.067407E+02		2.476017E+02		-4.086102E+01
6.767623E+02		-2.919374E+02		-3.848249E+02
8.370257E+02		-2.735319E+02		-5.634938E+02
7.843053E+02		-9.046345E+01		-6.938419E+02
6.464714E+02		4.214547E+01		-6.886169E+02
7.709392E+02		-3.843357E+02		-3.866035E+02
6.896299E+02		-4.011767E+02		-2.884532E+02
-1.751213E+02		5.249181E+02		-3.497968E+02
-1.943858E+01		-3.405078E+02		3.599464E+02
-5.990569E+01		-3.066934E+02		3.665991E+02
1.417596E+02		-5.697474E+02		4.279878E+02
7.613425E+01		-5.708413E+02		4.947070E+02
-4.859945E+02		2.415350E+02		2.444595E+02
2.636017E+02		-4.230952E+02		1.594936E+02
-2.204137E+02		5.577600E+02		-3.373463E+02
1.200782E+02		5.574027E+02		-6.774809E+02
4.345833E+01		-8.159176E+01		3.813343E+01
-9.058232E+00		4.316229E+02		-4.225647E+02
1.430508E+02		4.555254E+02		-5.985762E+02
-4.553863E+02		2.603156E+02		1.950708E+02
-4.482185E+02		2.980383E+02		1.501802E+02
-3.867726E+02		2.568830E+02		1.298896E+02
-4.336892E+02		3.498839E+02		8.380526E+01
-5.055211E+02		2.237525E+02		2.817686E+02
1.750497E+02		5.222182E+02		-6.972679E+02
-4.484658E+02		2.750444E+02		1.734214E+02
-3.542215E+02		1.002771E+02		2.539444E+02
-1.064464E+02		6.086146E+01		4.558495E+01
1.184173E+02		-2.500580E+01		-9.341146E+01
-5.766826E+02		-8.167568E+01		6.583582E+02
-5.387239E+02		7.917498E+00		5.308064E+02
-5.763454E+02		-1.155508E+02		6.918962E+02
-5.462136E+02		-2.166292E+02		7.628427E+02
2.132580E+02		-4.150773E+02		2.018193E+02
-5.161770E+02		1.740279E+01		4.987742E+02
1.688805E+02		-3.868525E+02		2.179719E+02
1.400586E+02		4.875342E+02		-6.275928E+02
-5.952388E+02		5.863895E+02		8.849250E+00
9.170577E+01		6.931743E+02		-7.848800E+02
-3.116557E+02		5.925209E+02		-2.808653E+02
-8.400511E+01		8.195847E+02		-7.355796E+02
-4.845986E+01		1.154765E+02		-6.701665E+01
-4.147382E+02		5.351145E+02		-1.203763E+02
-4.343035E+01		8.159300E+01		-3.816265E+01
2.074834E+02		-1.009227E+02		-1.065607E+02
-1.487645E+02		2.342587E+02		-8.549421E+01
-6.587304E+01		1.530335E+02		-8.716045E+01
8.308611E+02		-1.968380E+02		-6.340231E+02
8.186628E+02		-3.369460E+02		-4.817168E+02
3.294455E+02		-4.368638E+02		1.074184E+02
1.854189E+02		-5.426569E+02		3.572380E+02
-3.343263E+02		6.401687E+02		-3.058424E+02
3.556902E+00		6.886510E+01		-7.242200E+01
-5.729132E+02		-5.348127E+01		6.263944E+02
-5.546241E+02		-8.526800E+00		5.631509E+02
-3.536735E+02		1.017070E+03		-6.633968E+02
5.986794E+02		1.423747E+01		-6.129169E+02
7.215626E+02		-1.798207E+01		-7.035805E+02
4.220565E+02		-4.829633E+02		6.090681E+01
-1.259091E+02		8.559496E+02		-7.300405E+02
-2.412038E+02		-8.824498E+01		3.294487E+02
6.723453E+02		-3.981950E+02		-2.741503E+02
7.332514E+02		-3.980061E+02		-3.352453E+02
6.682004E+02		1.302309E+02		-7.984313E+02
1.013608E+02		7.151359E+02		-8.164967E+02
4.118550E+01		-2.938586E+02		2.526731E+02
8.353152E+00		-2.549482E+02		2.465951E+02
1.221320E+02		3.956499E+02		-5.177820E+02
-5.294298E+02		5.085711E+02		2.085869E+01
1.033655E+02		5.950245E+02		-6.983900E+02
-4.933564E+02		3.467636E+02		1.465928E+02
5.655567E+01		-1.188898E+02		6.233416E+01
-4.448466E+02		-3.175052E+02		7.623518E+02
-1.386686E+02		1.074556E+02		3.121308E+01
-1.330154E+02		4.731060E+02		-3.400906E+02
1.329905E+02		5.187765E+02		-6.517670E+02
-3.530558E+02		1.815246E+02		1.715312E+02
7.987153E+02		-3.636651E+02		-4.350502E+02
7.316509E+01		3.852775E+02		-4.584425E+02
8.158800E+02		-1.499575E+02		-6.659226E+02
-5.211252E+02		4.517355E+02		6.938966E+01
-2.119935E+02		9.212105E+02		-7.092170E+02
5.011825E+02		-5.104552E+02		9.272684E+00
5.995618E+02		-3.899030E+01		-5.605715E+02
-1.039047E+01		7.465881E+02		-7.361976E+02
5.912862E+02		-1.300107E+01		-5.782851E+02
-6.963508E+02		6.954170E+02		9.338044E-01
-3.127929E+01		-1.332156E+02		1.644948E+02
-2.066343E+02		-1.129623E+02		3.195966E+02
-2.304513E+02		2.383085E+02		-7.857211E+00
-1.683317E+02		8.895612E+02		-7.212296E+02
-1.449846E+02		-1.415579E+02		2.865425E+02
5.413138E+02		-5.166366E+02		-2.467721E+01
2.180402E+02		-4.744700E+02		2.564298E+02
-3.991009E+02		4.578367E+02		-5.873578E+01
8.419268E+01		6.276973E+02		-7.118899E+02
-6.630839E+02		6.601552E+02		2.928645E+00
2.388196E+02		-4.226133E+02		1.837937E+02
-3.273982E+02		9.976612E+02		-6.702630E+02
1.509715E+02		-5.059570E+01		-1.003758E+02
6.732773E+02		-2.663566E+02		-4.069208E+02
1.999105E+02		-5.235660E+02		3.236555E+02
-9.116868E+01		-1.857442E+02		2.769129E+02
-4.686902E+02		3.249523E+02		1.437378E+02
-3.409047E+02		6.014556E+02		-2.605510E+02
-4.161671E+02		5.037703E+02		-8.760318E+01
4.576715E+01		-1.754831E+02		1.297160E+02
-3.426781E+02		1.546793E+02		1.879988E+02
-2.681875E+02		5.768827E+02		-3.086952E+02
6.706044E+02		-3.464493E+02		-3.241550E+02
-3.556469E+02		6.388594E+02		-2.832125E+02
-7.739112E+01		1.149951E+01		6.589161E+01
-7.075077E+02		7.067060E+02		8.016705E-01
-6.234299E+02		6.168135E+02		6.616378E+00
2.641667E+02		-1.581181E+02		-1.060485E+02
6.718418E+02		1.446549E+02		-8.164967E+02
-3.275055E+01		-1.674475E+02		2.001980E+02
1.012590E+02		3.851399E+02		-4.863989E+02
-3.419725E+02		1.231433E+02		2.188292E+02
6.802514E+01		5.095424E+00		-7.312056E+01
-4.994588E+02		1.489642E+01		4.845623E+02
1.432067E+02		5.508637E+02		-6.940704E+02
-5.358884E+02		4.910343E+01		4.867850E+02
-4.068714E+02		5.558460E+02		-1.489745E+02
-4.077572E+02		3.011934E+02		1.065638E+02
7.124088E+02		-4.010460E+02		-3.113628E+02
-2.584124E+02		5.754100E+02		-3.169977E+02
1.121366E+02		-5.746006E+02		4.624639E+02
1.660965E+02		-5.585809E+02		3.924843E+02
-9.160879E+01		3.622690E+01		5.538189E+01
1.081636E+02		-3.491947E+02		2.410311E+02
-5.658751E+02		9.419296E+01		4.716821E+02
2.143442E+02		5.001534E+02		-7.144976E+02
-1.931857E+01		-2.081735E+02		2.274921E+02
-3.759505E+02		6.183531E+02		-2.424027E+02
-5.687436E+02		5.576289E+02		1.111474E+01
-3.768441E+02		1.037370E+03		-6.605255E+02
5.397829E+01		-1.595909E+02		1.056126E+02
6.554366E+02		7.034007E+01		-7.257767E+02
-3.726030E+02		2.101271E+02		1.624759E+02
-5.995175E+01		-2.566831E+01		8.562006E+01
-1.226042E+02		2.167176E+02		-9.411336E+01
6.774570E+02		-3.171367E+02		-3.603203E+02
-3.102039E+02		6.303720E+02		-3.201681E+02
6.267877E+02		-3.443118E+02		-2.824760E+02
-4.718873E+01		-6.318660E+01		1.103753E+02
-2.373934E+02		2.255660E+02		1.182734E+01
-3.815656E+02		4.340124E+02		-5.244680E+01
-4.389350E+02		2.623860E+02		1.765489E+02
-4.657598E+01		7.840600E+02		-7.374840E+02
-4.145496E+01		-9.219932E+01		1.336543E+02
2.578760E+01		7.054842E+02		-7.312718E+02
-4.107070E+02		4.824737E+02		-7.176666E+01
6.148747E+02		-5.072503E+02		-1.076244E+02
6.602781E+02		8.928989E+01		-7.495680E+02
4.602786E+02		-4.984391E+02		3.816056E+01
6.808789E+02		1.509054E+01		-6.959694E+02
-4.201934E+02		5.334229E+00		4.148592E+02
7.672311E+01		-3.260328E+02		2.493097E+02
7.526904E+02		-3.924414E+02		-3.602490E+02
9.382314E+01		-9.527934E+00		-8.429521E+01
-5.738438E+02		1.993084E+02		3.745354E+02
5.748009E+01		-1.414405E+02		8.396044E+01
9.744815E+01		6.225693E+02		-7.200174E+02
5.800873E+02		-5.158625E+02		-6.422484E+01
3.550108E+02		-4.494385E+02		9.442772E+01
-5.844813E+02		1.422383E+02		4.422430E+02
6.432247E+02		-4.914062E+02		-1.518185E+02
4.286816E+01		3.949658E+02		-4.378340E+02
1.361114E+02		4.143992E+02		-5.505106E+02
-5.211191E+02		1.865569E+02		3.345623E+02
-4.636040E+02		4.018134E+02		6.179061E+01
-3.690984E+02		6.086388E+02		-2.395404E+02
-1.804794E+02		2.463030E+02		-6.582365E+01
-2.393143E+02		9.398312E+02		-7.005169E+02
6.530394E+02		-3.553696E+02		-2.976699E+02
2.866979E+02		-1.878759E+02		-9.882198E+01
5.797763E+02		8.580287E+00		-5.883566E+02
6.405651E+02		-1.549467E+02		-4.856184E+02
-5.429290E+02		1.995217E+02		3.434073E+02
1.802845E+02		-7.595974E+01		-1.043247E+02
8.864215E+01		6.677358E+02		-7.563780E+02
6.769545E+02		-4.391586E+02		-2.377959E+02
-5.602284E+02		-1.862880E+02		7.465164E+02
-5.324296E+01		-1.502248E+02		2.034678E+02
-2.048788E+02		1.910292E+02		1.384961E+01
-1.904681E+02		1.745831E+02		1.588505E+01
8.018340E+02		-1.200817E+02		-6.817523E+02
2.871394E+02		-4.225598E+02		1.354204E+02
3.132464E+02		-4.301192E+02		1.168728E+02
-5.870041E+02		1.750164E+02		4.119877E+02
-3.792125E+02		5.933068E+02		-2.140944E+02
-4.708465E+02		2.507453E+02		2.201013E+02
LINES 262 786
2		0		29
2		1		234
2		2		185
2		3		224
2		4		209
2		5		62
2		6		129
2		7		253
2		8		50
2		9		137
2		10		164
2		11		85
2		12		59
2		13		103
2		14		157
2		15		247
2		16		211
2		17		151
2		18		183
2		19		223
2		20		254
2		21		221
2		22		86
2		23		88
2		24		223
2		25		164
2		26		179
2		26		261
2		26		40
2		27		81
2		27		133
2		28		197
2		28		31
2		29		179
2		30		150
2		30		263
2		31		234
2		32		207
2		32		112
2		33		187
2		33		211
2		34		98
2		34		216
2		35		116
2		35		185
2		36		225
2		36		216
2		37		134
2		37		80
2		38		66
2		38		145
2		39		240
2		39		198
2		40		168
2		41		160
2		41		45
2		42		261
2		42		227
2		43		177
2		43		52
2		44		121
2		44		191
2		45		53
2		46		231
2		46		140
2		47		130
2		47		131
2		48		108
2		48		260
2		49		149
2		49		55
2		50		149
2		51		247
2		51		100
2		52		255
2		53		255
2		54		175
2		54		68
2		55		109
2		56		125
2		56		79
2		57		170
2		57		110
2		58		170
2		58		178
2		59		147
2		60		200
2		60		268
2		61		245
2		61		94
2		62		94
2		63		212
2		63		145
2		64		248
2		64		66
2		65		246
2		65		95
2		66		157
2		67		124
2		67		79
2		68		251
2		69		99
2		69		248
2		70		228
2		70		172
2		71		135
2		71		242
2		72		165
2		72		168
2		73		220
2		73		185
2		74		151
2		74		84
2		75		259
2		75		244
2		76		123
2		76		218
2		77		166
2		77		250
2		78		219
2		78		177
2		80		264
2		81		233
2		81		215
2		82		154
2		82		236
2		83		138
2		83		202
2		84		91
2		85		86
2		87		204
2		87		205
2		88		204
2		89		100
2		89		269
2		90		265
2		90		174
2		91		203
2		92		152
2		92		146
2		93		148
2		95		113
2		96		225
2		96		269
2		96		102
2		97		102
2		97		180
2		98		201
2		99		201
2		101		209
2		101		198
2		103		195
2		104		150
2		104		206
2		105		176
2		105		237
2		106		108
2		106		130
2		107		111
2		107		131
2		109		260
2		110		112
2		110		174
2		111		197
2		113		152
2		114		212
2		114		190
2		115		258
2		115		141
2		116		181
2		117		136
2		117		226
2		118		123
2		118		120
2		119		200
2		119		182
2		121		257
2		122		250
2		122		218
2		124		156
2		125		154
2		126		242
2		126		266
2		127		205
2		127		178
2		128		187
2		128		220
2		132		175
2		132		213
2		133		254
2		134		233
2		135		232
2		136		167
2		137		165
2		138		252
2		138		259
2		139		202
2		139		236
2		140		192
2		142		235
2		142		143
2		143		210
2		144		246
2		144		194
2		146		172
2		147		180
2		148		239
2		153		184
2		153		216
2		155		245
2		155		194
2		156		264
2		158		167
2		158		251
2		159		232
2		159		169
2		160		162
2		161		226
2		161		228
2		162		254
2		163		173
2		163		189
2		164		193
2		166		223
2		169		241
2		171		224
2		171		229
2		173		190
2		176		257
2		181		249
2		182		229
2		183		214
2		184		195
2		185		203
2		186		219
2		186		252
2		188		206
2		188		217
2		191		253
2		193		210
2		196		237
2		197		199
2		199		208
2		207		235
2		208		243
2		211		249
2		214		239
2		215		231
2		217		222
2		221		252
2		222		227
2		223		262
2		230		241
2		230		244
2		238		256
2		238		267
2		240		258
2		243		267
2		247		256
2		249		268
2		262		263
2		265		266
POINT_DATA 270
scalars NodeType integer
LOOKUP_TABLE default
7
7
7
7
7
7
7
7
7
7
7
7
7
7
7
7
7
7
7
7
7
7
7
7
7
7
0
0
0
0
0
0
0
0
0
0
0
0
0
0
0
0
0
0
0
0
0
0
0
0
0
0
0
0
0
0
0
0
0
0
0
0
0
0
0
0
0
0
0
0
0
0
0
0
0
0
0
0
0
0
0
0
0
0
0
0
0
0
0
0
0
0
0
9
0
0
0
0
0
0
0
0
0
0
0
0
0
0
0
0
0
0
0
0
0
0
0
0
0
0
9
0
0
0
0
0
0
0
0
9
0
0
0
0
0
0
0
0
0
0
0
8
0
0
0
0
0
0
0
0
0
0
0
0
0
0
0
0
0
0
0
0
0
0
0
0
0
0
0
0
0
0
0
0
0
0
0
0
0
0
0
0
0
0
0
0
0
0
0
8
0
0
8
0
0
0
9
0
0
0
0
0
0
0
0
0
0
0
0
0
0
0
0
8
0
0
0
0
0
0
0
0
0
0
0
0
0
0
0
0
0
0
0
0
0
0
0
0
0
0
0
0
0
0
0
0
0
0
0
0
0
0
0
0
0
0
0
0
0
0
0
0
0
0
0
0
0
0
0
0
CELL_DATA 262
SCALARS SlipSystem integer
LOOKUP_TABLE default
3
3
3
3
1
1
1
1
2
2
2
2
2
2
2
2
1
1
3
3
2
2
2
2
1
1
3
1
2
3
3
3
3
3
1
1
3
3
3
3
3
3
3
1
1
1
1
2
2
1
1
1
1
2
1
1
1
1
1
1
1
1
1
1
1
2
2
2
2
2
2
2
3
3
1
1
1
1
2
2
2
2
2
2
2
2
3
3
1
1
1
1
1
3
3
1
1
2
2
2
1
3
3
1
1
1
1
2
2
3
3
1
1
1
1
3
3
3
3
1
1
2
2
1
2
2
2
2
1
2
2
2
2
3
3
1
1
1
1
1
3
1
1
3
2
2
2
3
3
1
1
2
1
1
1
1
2
2
2
2
2
3
1
2
1
1
1
1
1
1
1
1
3
3
3
3
1
3
3
2
2
1
1
2
2
3
3
1
1
3
2
1
1
2
3
1
2
2
1
3
3
3
1
1
1
2
3
2
2
1
1
2
1
1
1
1
1
1
1
1
1
1
3
3
1
3
3
1
1
1
3
3
2
1
1
1
1
1
1
3
1
1
1
3
1
2
3
1
1
2
1
1
1
1
1
1
1
1
1
3
1
1
