# vtk DataFile Version 1.0
dislocation microstructure
ASCII
DATASET POLYDATA
POINTS 267 float
-1.407136E+02		-2.213016E+02		3.620151E+02
-4.069171E+02		1.959506E+01		3.873221E+02
-2.678171E+02		5.735064E+02		-3.056893E+02
-3.585793E+02		4.159045E+02		-5.732522E+01
2.435975E+02		5.088909E+02		-7.524885E+02
-3.645297E+01		4.790810E+02		-4.426281E+02
1.137360E+01		4.804267E+01		-5.941627E+01
2.977420E+02		-2.208350E+02		-7.690702E+01
-3.705953E+02		-3.364613E+02		7.070566E+02
-2.633774E+02		-5.962946E+01		3.230069E+02
-5.059046E+01		-1.177741E+02		1.683646E+02
-3.709113E+00		-3.770962E+02		3.808053E+02
-5.645235E+02		3.793574E+02		1.851661E+02
-3.703694E+02		9.044315E+01		2.799262E+02
-5.304416E+02		4.354699E+02		9.497178E+01
-5.136564E+02		1.737037E+02		3.399526E+02
-4.002894E+02		6.227393E+02		-2.224499E+02
-1.296146E+02		4.379697E+02		-3.083551E+02
3.132033E+01		-1.863970E+02		1.550767E+02
-2.594066E+02		2.052232E+02		5.418340E+01
5.559540E+02		2.224913E+01		-5.782031E+02
6.021915E+02		-3.324134E+02		-2.697781E+02
-9.943729E+01		-2.899623E+02		3.893996E+02
3.188077E+01		-5.505567E+02		5.186760E+02
-2.457631E+02		2.346175E+02		1.114560E+01
-1.949524E+01		-1.452330E+02		1.647282E+02
-8.002588E+01		-1.789536E+02		2.589795E+02
6.464529E+02		8.449598E+00		-6.549025E+02
-4.662982E+02		-8.535196E+00		4.748334E+02
-1.029442E+02		-2.169961E+02		3.199403E+02
-1.548986E+02		1.634072E+02		-8.508654E+00
-4.412073E+02		-8.576301E+00		4.497836E+02
1.320097E+02		-3.824320E+02		2.504223E+02
-3.797214E+02		6.395599E+02		-2.598384E+02
-4.156345E+02		2.726665E+02		1.429680E+02
-2.884653E+02		6.022792E+02		-3.138138E+02
-3.907078E+02		2.481525E+02		1.425553E+02
7.657465E+02		-4.553689E+01		-7.202097E+02
-5.462739E+02		4.764193E+02		6.985463E+01
-6.024527E+02		1.216933E+02		4.807594E+02
-1.168235E+02		-1.651969E+02		2.820204E+02
6.410651E+02		-6.190593E+01		-5.791592E+02
-1.160571E+01		-1.402679E+02		1.518736E+02
6.989830E+02		-2.340239E+02		-4.649591E+02
2.499268E+02		-1.103376E+02		-1.395892E+02
6.512511E+02		-8.843612E+01		-5.628150E+02
7.063167E+02		8.314522E+01		-7.894619E+02
-5.775218E+02		-2.001051E+01		5.975323E+02
-5.842859E+02		-1.529428E+02		7.372287E+02
-4.850993E+02		-2.978975E+02		7.829968E+02
-4.079483E+02		-3.355763E+02		7.435246E+02
-5.265693E+02		2.146772E+02		3.118921E+02
6.866518E+02		-1.909169E+02		-4.957349E+02
6.676660E+02		-1.340248E+02		-5.336412E+02
-2.884074E+02		1.011408E+03		-7.230009E+02
-5.245523E+02		-2.623233E+02		7.868756E+02
8.476776E+02		-3.182516E+02		-5.294260E+02
2.399989E+02		-4.558048E+02		2.158058E+02
2.229027E+02		-5.146245E+02		2.917218E+02
-5.306699E+02		3.688738E+02		1.617961E+02
-3.992053E+02		5.876197E+02		-1.884144E+02
9.866541E+00		3.977728E+02		-4.076394E+02
-3.741181E+01		4.568195E+02		-4.194077E+02
-5.755465E+02		5.134582E+02		6.208827E+01
-4.987309E+02		4.206000E+02		7.813088E+01
1.770117E+02		4.112067E+02		-5.882184E+02
-5.203810E+02		4.463722E+02		7.400877E+01
8.551132E+02		-2.453433E+02		-6.097698E+02
-2.571414E+02		9.890034E+02		-7.318620E+02
-4.685132E+02		3.758114E+02		9.270177E+01
2.044935E+02		4.762138E+02		-6.807073E+02
3.861053E+02		-5.017667E+02		1.156614E+02
-1.742047E+02		-1.394861E+02		3.136908E+02
-2.810247E+02		6.111131E+02		-3.300884E+02
-1.389760E+02		5.055742E+02		-3.665982E+02
7.001736E+02		-4.974669E+02		-2.027066E+02
-9.321370E+01		1.979724E+02		-1.047587E+02
-2.115444E+02		2.551516E+02		-4.360726E+01
7.106316E+02		-3.076567E+02		-4.029749E+02
8.545700E+02		-2.834942E+02		-5.710758E+02
7.973409E+02		-8.660533E+01		-7.107356E+02
6.787123E+02		2.202397E+01		-7.007362E+02
7.828127E+02		-3.987094E+02		-3.841033E+02
-5.078235E+01		-1.834734E+02		2.342558E+02
-1.658537E+02		5.367087E+02		-3.708550E+02
-1.927066E+01		-3.407681E+02		3.600387E+02
-5.975865E+01		-3.068160E+02		3.665747E+02
1.474118E+02		-5.781490E+02		4.307372E+02
7.650365E+01		-5.744253E+02		4.979216E+02
-5.038630E+02		2.592136E+02		2.446494E+02
2.809148E+02		-4.668086E+02		1.858938E+02
-2.182429E+02		5.781618E+02		-3.599189E+02
8.413395E+02		-1.773179E+02		-6.640216E+02
4.338790E+01		-8.159485E+01		3.820695E+01
-1.788684E+01		4.254478E+02		-4.075610E+02
1.808815E+02		4.358915E+02		-6.167730E+02
-4.767802E+02		2.886631E+02		1.881171E+02
-1.347619E+02		1.398406E+02		-5.078682E+00
-1.764162E+01		-2.331528E+02		2.507944E+02
-4.532630E+02		3.491409E+02		1.041221E+02
-5.194124E+02		2.361116E+02		2.833008E+02
7.071382E+02		-4.787839E+02		-2.283543E+02
-4.554299E+02		3.028232E+02		1.526067E+02
-3.521560E+02		9.850104E+01		2.536550E+02
6.286149E+02		2.718917E+00		-6.313338E+02
1.248255E+02		-2.125680E+00		-1.226999E+02
-5.916414E+02		-7.349907E+01		6.651405E+02
-5.467413E+02		1.625227E+01		5.304890E+02
-5.916956E+02		-1.090353E+02		7.007309E+02
-5.569362E+02		-2.183842E+02		7.753204E+02
2.190203E+02		-4.422525E+02		2.232322E+02
-5.345688E+02		2.154764E+01		5.130212E+02
1.652012E+02		-4.041322E+02		2.389310E+02
1.822780E+02		4.664577E+02		-6.487358E+02
-6.210877E+02		5.678696E+02		5.321803E+01
-3.296517E+01		-1.565209E+02		1.894861E+02
-3.154505E+02		6.136435E+02		-2.981930E+02
-6.758918E+01		8.421915E+02		-7.746023E+02
-4.566839E+01		1.147252E+02		-6.905683E+01
-4.178528E+02		5.368450E+02		-1.189922E+02
-4.339267E+01		8.159464E+01		-3.820197E+01
2.236520E+02		-8.276650E+01		-1.408855E+02
-1.487972E+02		2.427327E+02		-9.393547E+01
-6.166191E+01		1.538846E+02		-9.222270E+01
8.485487E+02		-2.023811E+02		-6.461676E+02
8.339947E+02		-3.498043E+02		-4.841904E+02
3.357107E+02		-4.813644E+02		1.456537E+02
1.956953E+02		-5.530339E+02		3.573386E+02
-3.376913E+02		6.503101E+02		-3.126188E+02
3.447719E+00		6.892375E+01		-7.237147E+01
-5.866860E+02		-4.442794E+01		6.311139E+02
-5.641300E+02		2.979931E-01		5.638320E+02
-3.347328E+02		1.048515E+03		-7.137824E+02
6.513978E+02		-3.577263E+02		-2.936715E+02
7.291586E+02		-7.940952E+00		-7.212176E+02
4.254942E+02		-5.185961E+02		9.310183E+01
-1.120182E+02		8.804749E+02		-7.684567E+02
-2.439446E+02		-9.057676E+01		3.345213E+02
6.998935E+02		-4.107337E+02		-2.891597E+02
7.422709E+02		-4.123090E+02		-3.299619E+02
-5.705526E+02		6.435227E+01		5.062003E+02
6.195142E+01		7.545452E+02		-8.164967E+02
3.313955E+01		-3.005330E+02		2.673935E+02
-1.188306E+00		-2.583279E+02		2.595163E+02
1.496711E+02		3.654104E+02		-5.150815E+02
-5.623661E+02		4.968286E+02		6.553748E+01
-9.795134E+01		9.075241E+01		7.198932E+00
-4.939152E+02		3.462296E+02		1.476855E+02
5.736428E+01		-1.185839E+02		6.121964E+01
-4.450852E+02		-3.221985E+02		7.672837E+02
-1.159643E+02		1.157209E+02		2.433558E-01
-1.185814E+02		4.672476E+02		-3.486662E+02
-3.436319E+02		1.817133E+02		1.619186E+02
8.126071E+02		-3.771323E+02		-4.354748E+02
8.168051E+01		3.589446E+02		-4.406251E+02
8.324506E+02		-1.520644E+02		-6.803862E+02
5.803884E+02		-5.547315E+02		-2.565692E+01
-2.021415E+02		9.499456E+02		-7.478041E+02
5.126545E+02		-5.473000E+02		3.464544E+01
6.326593E+02		-4.260072E+01		-5.900586E+02
1.141481E+01		7.706326E+02		-7.820474E+02
6.155064E+02		-1.162601E+01		-6.038804E+02
-7.199108E+02		6.743411E+02		4.556978E+01
6.228980E+02		-5.500046E+02		-7.289338E+01
-2.082158E+02		-1.194859E+02		3.277017E+02
-2.355863E+02		2.440406E+02		-8.454334E+00
-1.568815E+02		9.163229E+02		-7.594414E+02
-1.436037E+02		-1.540545E+02		2.976582E+02
5.576694E+02		-5.542912E+02		-3.378132E+00
2.328175E+02		-4.838669E+02		2.510494E+02
-3.979979E+02		4.578968E+02		-5.989892E+01
7.984002E+02		-3.889675E+02		-4.094328E+02
-6.872003E+02		6.403408E+02		4.685948E+01
6.594048E+02		-5.359738E+02		-1.234310E+02
-3.138557E+02		1.030916E+03		-7.170599E+02
1.618996E+02		-2.832112E+01		-1.335785E+02
7.081161E+02		-2.786101E+02		-4.295060E+02
2.119692E+02		-5.341286E+02		3.221594E+02
-8.407761E+01		-1.916517E+02		2.757293E+02
-4.705208E+02		3.238077E+02		1.467131E+02
-3.465034E+02		6.228713E+02		-2.763678E+02
-4.158361E+02		5.039500E+02		-8.811394E+01
4.669072E+01		-1.766048E+02		1.299140E+02
-3.343344E+02		1.515355E+02		1.827989E+02
-2.763759E+02		5.979819E+02		-3.216060E+02
6.929763E+02		-3.667730E+02		-3.262033E+02
-3.629519E+02		6.495419E+02		-2.865900E+02
-7.757997E+01		6.083565E+01		1.674432E+01
-7.298549E+02		6.843588E+02		4.549611E+01
-6.479694E+02		5.979327E+02		5.003670E+01
2.820244E+02		-1.504936E+02		-1.315308E+02
7.125290E+02		1.039677E+02		-8.164967E+02
-4.153957E+01		-1.728975E+02		2.144370E+02
1.196115E+02		3.549475E+02		-4.745590E+02
-3.367839E+02		1.197905E+02		2.169935E+02
6.115762E+01		1.626998E+01		-7.742760E+01
-5.059519E+02		4.804910E+00		5.011470E+02
2.452709E+02		4.857291E+02		-7.310000E+02
6.886676E+02		-5.130100E+02		-1.756576E+02
-4.130720E+02		5.607902E+02		-1.477182E+02
-4.314127E+02		3.027781E+02		1.286347E+02
7.188454E+02		-4.138463E+02		-3.049992E+02
-2.622570E+02		5.988550E+02		-3.365980E+02
1.152860E+02		-5.810669E+02		4.657809E+02
1.741768E+02		-5.682679E+02		3.940910E+02
-2.446520E+01		-1.408264E+02		1.652916E+02
1.035490E+02		-3.625337E+02		2.589848E+02
-5.880746E+02		9.215523E+01		4.959193E+02
2.263403E+02		4.763606E+02		-7.027010E+02
-3.243491E+01		-2.069533E+02		2.393883E+02
-3.842933E+02		6.321556E+02		-2.478623E+02
-5.973093E+02		5.401639E+02		5.714533E+01
-3.507030E+02		1.063511E+03		-7.128077E+02
5.536281E+01		-1.606251E+02		1.052623E+02
6.908030E+02		3.172712E+01		-7.225301E+02
-3.641643E+02		2.156890E+02		1.484753E+02
-4.928739E+01		-3.173063E+01		8.101802E+01
-1.195705E+02		2.231466E+02		-1.035761E+02
7.085907E+02		-3.369511E+02		-3.716397E+02
-3.082968E+02		6.379700E+02		-3.296732E+02
6.270805E+02		-3.487761E+02		-2.783044E+02
-2.407105E+01		-6.694855E+01		9.101960E+01
-2.409429E+02		2.333064E+02		7.636450E+00
-3.807796E+02		4.338384E+02		-5.305873E+01
1.882847E+02		-4.198732E+02		2.315885E+02
-2.745846E+01		8.056302E+02		-7.781718E+02
-1.199385E+01		-1.038339E+02		1.158277E+02
4.013774E+01		7.492140E+02		-7.893517E+02
-4.094903E+02		4.822001E+02		-7.270984E+01
6.426195E+02		-5.442944E+02		-9.832505E+01
7.012248E+02		6.218163E+01		-7.634064E+02
4.672320E+02		-5.343255E+02		6.709360E+01
-4.177579E+02		2.200858E+00		4.155570E+02
7.040186E+01		-3.363063E+02		2.659045E+02
7.633447E+02		-4.071001E+02		-3.562445E+02
9.240773E+01		1.467187E+01		-1.070796E+02
-5.897437E+02		2.196473E+02		3.700963E+02
5.881380E+01		-1.421331E+02		8.331934E+01
-1.908206E+02		5.587517E+02		-3.679310E+02
6.020277E+02		-5.537418E+02		-4.828592E+01
3.575878E+02		-4.897374E+02		1.321495E+02
-6.123374E+02		1.520475E+02		4.602899E+02
6.751475E+02		-5.262746E+02		-1.488729E+02
4.322580E+01		3.749249E+02		-4.181508E+02
1.687603E+02		3.876776E+02		-5.564379E+02
-5.268820E+02		1.967935E+02		3.300886E+02
-4.826378E+02		3.980527E+02		8.458511E+01
-3.759678E+02		6.275535E+02		-2.515857E+02
-1.831524E+02		2.549208E+02		-7.176836E+01
-2.305452E+02		9.702280E+02		-7.396829E+02
6.762546E+02		-3.664619E+02		-3.097927E+02
3.035402E+02		-1.910947E+02		-1.124456E+02
6.030442E+02		1.576716E+00		-6.046209E+02
6.771894E+02		-1.617481E+02		-5.154413E+02
-5.463939E+02		2.105679E+02		3.358260E+02
1.944575E+02		-5.545031E+01		-1.390072E+02
-6.043197E+02		2.087749E+02		3.955448E+02
7.110647E+02		-4.563355E+02		-2.547293E+02
-5.736430E+02		-1.846905E+02		7.583336E+02
-5.685639E+02		2.182991E+02		3.502647E+02
-1.960628E+02		2.027905E+02		-6.727728E+00
-1.766245E+02		1.857638E+02		-9.139266E+00
8.171042E+02		-1.193744E+02		-6.977297E+02
3.027064E+02		-4.713460E+02		1.686396E+02
-6.142447E+02		1.924147E+02		4.218299E+02
-3.883553E+02		6.013641E+02		-2.130088E+02
-4.919264E+02		2.731402E+02		2.187861E+02
LINES 259 777
2		0		29
2		1		232
2		2		184
2		3		223
2		4		197
2		5		62
2		6		129
2		7		251
2		8		50
2		9		137
2		10		205
2		11		85
2		12		59
2		13		103
2		14		66
2		15		245
2		16		210
2		17		151
2		18		182
2		19		222
2		20		252
2		21		220
2		22		86
2		23		88
2		24		222
2		25		205
2		26		178
2		26		40
2		26		83
2		27		81
2		27		104
2		28		196
2		28		31
2		29		178
2		30		261
2		30		97
2		31		232
2		32		206
2		32		112
2		33		186
2		33		210
2		34		102
2		34		36
2		34		200
2		35		116
2		35		184
2		36		215
2		37		134
2		37		80
2		38		66
2		38		145
2		39		241
2		39		207
2		40		167
2		41		159
2		41		45
2		42		226
2		42		205
2		43		176
2		43		52
2		44		121
2		44		190
2		45		53
2		46		230
2		46		191
2		47		130
2		47		131
2		48		108
2		48		258
2		49		149
2		49		55
2		50		149
2		51		245
2		51		100
2		52		253
2		53		253
2		54		174
2		54		68
2		55		109
2		56		125
2		56		79
2		57		169
2		57		110
2		57		90
2		58		169
2		58		177
2		59		147
2		60		199
2		60		265
2		61		243
2		61		94
2		62		94
2		63		211
2		63		145
2		64		246
2		64		66
2		65		244
2		65		95
2		67		124
2		67		79
2		68		249
2		69		99
2		69		246
2		70		208
2		70		113
2		71		135
2		71		240
2		72		164
2		72		167
2		73		219
2		73		184
2		74		151
2		74		84
2		75		198
2		75		101
2		76		123
2		76		217
2		77		165
2		77		248
2		78		218
2		78		176
2		80		262
2		81		214
2		82		234
2		82		171
2		83		192
2		84		238
2		85		86
2		87		203
2		87		204
2		88		203
2		89		100
2		89		266
2		90		263
2		91		202
2		91		238
2		92		155
2		92		124
2		93		148
2		95		113
2		96		102
2		96		266
2		97		150
2		98		209
2		98		143
2		99		200
2		101		257
2		102		179
2		103		194
2		104		252
2		105		175
2		105		235
2		106		108
2		106		130
2		107		111
2		107		131
2		109		258
2		110		224
2		111		196
2		111		140
2		112		224
2		114		211
2		114		189
2		115		205
2		115		192
2		116		180
2		117		136
2		117		225
2		118		123
2		118		120
2		119		199
2		119		181
2		121		255
2		122		248
2		122		217
2		125		153
2		126		240
2		126		263
2		127		204
2		127		177
2		128		186
2		128		219
2		132		174
2		132		212
2		133		250
2		133		220
2		134		214
2		135		231
2		136		166
2		137		164
2		138		250
2		138		257
2		138		201
2		139		201
2		139		234
2		140		207
2		141		227
2		142		233
2		142		143
2		144		244
2		144		193
2		146		150
2		146		187
2		147		179
2		148		237
2		152		183
2		152		215
2		153		171
2		154		243
2		154		193
2		155		262
2		156		239
2		156		168
2		157		166
2		157		249
2		158		231
2		158		168
2		159		161
2		160		225
2		160		227
2		161		252
2		162		172
2		162		188
2		163		239
2		163		229
2		165		222
2		170		223
2		170		228
2		172		189
2		173		242
2		173		229
2		175		255
2		180		247
2		181		228
2		182		213
2		183		194
2		184		202
2		185		218
2		185		250
2		190		251
2		192		209
2		195		235
2		197		208
2		198		242
2		206		233
2		210		247
2		213		237
2		214		230
2		216		221
2		221		226
2		222		260
2		236		256
2		236		259
2		241		264
2		245		254
2		247		265
2		254		259
2		256		264
2		260		261
POINT_DATA 267
scalars NodeType integer
LOOKUP_TABLE default
7
7
7
7
7
7
7
7
7
7
7
7
7
7
7
7
7
7
7
7
7
7
7
7
7
7
0
0
0
0
0
0
0
0
0
0
0
0
0
0
0
0
0
0
0
0
0
0
0
0
0
0
0
0
0
0
0
0
0
0
0
0
0
0
0
0
0
0
0
0
0
0
0
0
0
0
0
0
0
0
0
0
0
0
0
0
0
0
0
0
0
0
0
9
0
0
0
0
0
0
0
0
0
0
0
0
0
0
0
0
0
0
0
0
0
0
0
0
0
0
9
0
0
0
0
0
0
0
0
9
0
0
0
0
0
0
0
0
0
0
0
8
0
0
0
0
0
0
0
0
0
0
0
0
0
0
0
0
0
0
0
0
0
0
0
0
0
0
0
0
0
0
0
0
0
0
0
0
0
0
0
0
0
0
0
0
0
9
8
0
0
8
0
0
0
9
0
0
0
0
0
0
0
0
0
0
0
0
0
0
0
0
8
0
0
0
9
0
0
0
0
0
0
0
0
0
0
0
0
0
0
0
0
0
0
0
0
0
0
0
0
0
0
0
0
0
0
0
0
0
0
0
0
0
0
0
0
0
0
0
0
0
0
0
0
0
0
CELL_DATA 259
SCALARS SlipSystem integer
LOOKUP_TABLE default
3
3
3
3
1
1
1
1
2
2
2
2
2
2
2
2
1
1
3
3
2
2
2
2
1
1
3
2
1
3
3
3
3
3
1
1
3
3
3
3
3
1
2
3
1
1
2
2
2
1
1
1
1
2
1
1
1
1
1
1
1
1
1
1
1
2
2
2
2
2
2
2
3
3
1
1
1
1
2
2
2
2
3
1
2
2
2
3
3
1
1
1
1
1
3
3
1
1
2
2
1
3
3
1
1
1
1
2
2
3
3
1
1
1
1
3
3
3
3
1
1
2
3
2
2
1
1
2
2
2
2
3
3
1
1
1
2
2
3
1
3
3
1
3
3
3
1
2
2
3
1
1
2
2
2
2
2
3
3
1
3
1
1
2
2
1
1
1
3
3
3
3
1
3
3
2
1
1
2
2
3
3
1
1
2
2
2
1
1
2
3
1
2
2
2
1
1
3
3
1
1
1
1
2
3
2
2
2
1
1
2
1
1
1
1
1
1
1
1
1
1
1
1
1
1
3
3
3
1
1
1
1
1
3
3
2
1
1
1
1
3
1
1
1
3
2
3
1
1
1
1
1
1
1
1
3
1
1
1
