# vtk DataFile Version 1.0
dislocation microstructure
ASCII
DATASET POLYDATA
POINTS 136 float
-1.407136E+02		-2.213016E+02		3.620151E+02
-4.069171E+02		1.959506E+01		3.873221E+02
-2.678171E+02		5.735064E+02		-3.056893E+02
-3.585793E+02		4.159045E+02		-5.732522E+01
2.435975E+02		5.088909E+02		-7.524885E+02
-3.645297E+01		4.790810E+02		-4.426281E+02
1.137360E+01		4.804267E+01		-5.941627E+01
2.977420E+02		-2.208350E+02		-7.690702E+01
-3.705953E+02		-3.364613E+02		7.070566E+02
-2.633774E+02		-5.962946E+01		3.230069E+02
-5.059046E+01		-1.177741E+02		1.683646E+02
-3.709113E+00		-3.770962E+02		3.808053E+02
-5.645235E+02		3.793574E+02		1.851661E+02
-3.703694E+02		9.044315E+01		2.799262E+02
-5.304416E+02		4.354699E+02		9.497178E+01
-5.136564E+02		1.737037E+02		3.399526E+02
-4.002894E+02		6.227393E+02		-2.224499E+02
-1.296146E+02		4.379697E+02		-3.083551E+02
3.132033E+01		-1.863970E+02		1.550767E+02
-2.594066E+02		2.052232E+02		5.418340E+01
5.559540E+02		2.224913E+01		-5.782031E+02
6.021915E+02		-3.324134E+02		-2.697781E+02
-9.943729E+01		-2.899623E+02		3.893996E+02
3.188077E+01		-5.505567E+02		5.186760E+02
-2.457631E+02		2.346175E+02		1.114560E+01
-1.949524E+01		-1.452330E+02		1.647282E+02
-2.695070E+02		-9.146782E+01		3.609748E+02
-5.145722E+02		3.160888E+02		1.984833E+02
-2.019036E+02		-1.543730E+02		3.562766E+02
-1.691441E+02		-1.861328E+02		3.552769E+02
-3.357967E+02		-3.483078E+01		3.706275E+02
-3.699377E+02		-4.062330E+00		3.740001E+02
-3.223371E+02		5.024566E+02		-1.801195E+02
-2.968521E+02		5.395526E+02		-2.427005E+02
-1.841688E+02		1.675116E+02		1.665729E+01
-3.451248E+02		4.628963E+02		-1.177716E+02
-3.546141E+02		4.412671E+02		-8.665302E+01
1.173411E+02		4.700566E+02		-5.873977E+02
1.873728E+02		4.777667E+02		-6.651395E+02
2.233850E+02		4.837753E+02		-7.071603E+02
4.677544E+01		4.631235E+02		-5.098989E+02
8.199701E+00		4.621870E+02		-4.703867E+02
1.658067E+02		-7.307942E+01		-9.272725E+01
9.553423E+01		-6.852562E+00		-8.868167E+01
5.965744E+01		1.844904E+01		-7.810648E+01
2.370525E+02		-1.413602E+02		-9.569227E+01
2.728981E+02		-1.788947E+02		-9.400338E+01
-3.285678E+02		-1.894878E+02		5.180556E+02
-3.549556E+02		-2.589592E+02		6.139148E+02
-3.678154E+02		-2.941066E+02		6.619220E+02
-3.728168E+02		-3.133744E+02		6.861912E+02
-3.041469E+02		-1.187862E+02		4.229331E+02
-4.543914E+01		-6.375308E+01		1.091922E+02
-2.719133E+02		-7.553971E+01		3.474530E+02
-1.521153E+01		-2.515770E+02		2.667886E+02
-2.723271E+01		-1.865937E+02		2.138264E+02
-3.493581E+01		-1.529632E+02		1.878990E+02
-2.559730E+00		-3.167617E+02		3.193215E+02
2.438979E+00		-3.498196E+02		3.473806E+02
-5.440290E+02		3.478597E+02		1.961693E+02
-4.347728E+02		2.065300E+02		2.282428E+02
-3.984812E+02		1.494398E+02		2.490414E+02
-3.805400E+02		1.198327E+02		2.607074E+02
-5.100016E+02		3.700286E+02		1.399730E+02
-5.160503E+02		4.016210E+02		1.144294E+02
-5.131888E+02		2.434323E+02		2.697565E+02
-5.098383E+02		2.067046E+02		3.031337E+02
-2.620305E+02		5.440142E+02		-2.819837E+02
-3.280187E+02		5.953661E+02		-2.673474E+02
-3.656560E+02		6.168387E+02		-2.511827E+02
-1.927016E+02		4.995446E+02		-3.068430E+02
-1.576134E+02		4.722042E+02		-3.145908E+02
-1.099086E+02		1.206101E+01		9.784754E+01
-3.245422E+01		-8.820079E+01		1.206550E+02
3.333191E+00		-1.349813E+02		1.316481E+02
1.897495E+01		-1.605987E+02		1.416238E+02
-1.809919E+02		1.094183E+02		7.157363E+01
-2.173595E+02		1.585234E+02		5.883612E+01
-2.367738E+02		1.831286E+02		5.364523E+01
5.911284E+02		-1.598559E+02		-4.312725E+02
5.795794E+02		-7.117064E+01		-5.084088E+02
5.730745E+02		-2.596115E+01		-5.471133E+02
6.023683E+02		-2.484455E+02		-3.539228E+02
6.069757E+02		-2.927780E+02		-3.141977E+02
-2.486413E+01		-4.200955E+02		4.449596E+02
-5.953609E+01		-3.549408E+02		4.144769E+02
-7.725779E+01		-3.221019E+02		3.993597E+02
8.543512E+00		-4.854095E+02		4.768660E+02
2.425367E+01		-5.186882E+02		4.944346E+02
-1.092736E+02		4.826773E+01		6.100589E+01
-1.681671E+02		1.431306E+02		2.503646E+01
-2.014474E+02		1.919911E+02		9.456302E+00
-2.222136E+02		2.155016E+02		6.712070E+00
-2.304776E+01		-1.196426E+02		1.426904E+02
-3.034337E+02		-6.645211E+01		3.698858E+02
-2.345776E+02		-1.234018E+02		3.579794E+02
-5.197152E+02		2.813101E+02		2.384051E+02
-5.031875E+02		3.353735E+02		1.678140E+02
-4.692077E+02		2.631523E+02		2.060554E+02
-4.886191E+02		2.963559E+02		1.922632E+02
-3.099486E+02		5.213935E+02		-2.114449E+02
-3.340827E+02		4.829938E+02		-1.489111E+02
8.224865E+01		4.664216E+02		-5.486702E+02
1.523648E+02		4.737909E+02		-6.261557E+02
1.303735E+02		-3.943326E+01		-9.094028E+01
2.014154E+02		-1.069294E+02		-9.448595E+01
-3.416690E+02		-2.242808E+02		5.659498E+02
-3.159267E+02		-1.544114E+02		4.703381E+02
-3.483026E+02		-2.416238E+02		5.899264E+02
-3.615479E+02		-2.763633E+02		6.379112E+02
-2.972752E+02		-1.000615E+02		3.973368E+02
-3.099386E+02		-1.366815E+02		4.466201E+02
-2.123088E+01		-2.191428E+02		2.403736E+02
-8.916578E+00		-2.841037E+02		2.930203E+02
-4.167043E+02		1.780450E+02		2.386593E+02
-4.524067E+02		2.349508E+02		2.174559E+02
-2.921665E+02		5.689625E+02		-2.767960E+02
-2.274283E+02		5.229350E+02		-2.955067E+02
-1.453408E+02		6.011116E+01		8.522963E+01
-6.217712E+01		-3.655275E+01		9.872988E+01
-1.372421E+01		-1.093048E+02		1.230290E+02
-9.462856E+01		2.372105E+01		7.090750E+01
-1.990255E+02		1.340009E+02		6.502456E+01
-1.631112E+02		8.478103E+01		7.833021E+01
5.853930E+02		-1.155373E+02		-4.698557E+02
5.968212E+02		-2.041616E+02		-3.926596E+02
-4.214899E+01		-3.874980E+02		4.296470E+02
-7.964989E+00		-4.527298E+02		4.606948E+02
-8.049868E+01		-1.578694E+00		8.207738E+01
-1.387010E+02		9.575192E+01		4.294904E+01
-3.350821E+02		-2.069077E+02		5.419898E+02
-3.221628E+02		-1.719996E+02		4.941625E+02
-1.275450E+02		3.553706E+01		9.200795E+01
-2.830750E+02		-8.690745E+01		3.699824E+02
-2.853828E+02		5.586946E+02		-2.733118E+02
-7.638235E+01		-1.629447E+01		9.267682E+01
LINES 127 381
2		0		29
2		1		31
2		2		134
2		3		36
2		4		39
2		5		41
2		6		44
2		7		46
2		8		50
2		9		53
2		10		56
2		11		58
2		12		59
2		13		62
2		14		64
2		15		66
2		16		69
2		17		71
2		18		75
2		19		78
2		20		81
2		21		83
2		22		86
2		23		88
2		24		92
2		25		93
2		26		95
2		26		133
2		27		59
2		27		96
2		27		97
2		27		99
2		28		95
2		28		29
2		30		94
2		30		31
2		32		100
2		32		101
2		33		100
2		33		134
2		34		91
2		34		90
2		35		101
2		35		36
2		37		102
2		37		103
2		38		103
2		38		39
2		40		102
2		40		41
2		42		104
2		42		105
2		43		104
2		43		44
2		45		105
2		45		46
2		47		130
2		47		131
2		48		108
2		48		109
2		49		109
2		49		50
2		51		110
2		51		111
2		52		119
2		52		73
2		53		133
2		54		112
2		54		113
2		55		112
2		55		56
2		57		113
2		57		58
2		60		114
2		60		115
2		61		114
2		61		62
2		63		97
2		63		64
2		65		96
2		65		66
2		67		117
2		67		134
2		68		116
2		68		69
2		70		117
2		70		71
2		72		132
2		72		135
2		73		120
2		73		93
2		74		120
2		74		75
2		76		122
2		76		123
2		77		122
2		77		78
2		79		124
2		79		125
2		80		124
2		80		81
2		82		125
2		82		83
2		84		126
2		84		127
2		85		126
2		85		86
2		87		127
2		87		88
2		89		129
2		89		121
2		90		129
2		91		92
2		94		133
2		98		115
2		98		99
2		106		108
2		106		130
2		107		111
2		107		131
2		110		133
2		116		134
2		118		123
2		118		132
2		119		135
2		121		128
2		128		135
POINT_DATA 136
scalars NodeType integer
LOOKUP_TABLE default
7
7
7
7
7
7
7
7
7
7
7
7
7
7
7
7
7
7
7
7
7
7
7
7
7
7
0
0
0
0
0
0
0
0
0
0
0
0
0
0
0
0
0
0
9
0
0
0
0
0
0
0
0
0
0
0
0
0
0
0
0
0
0
0
0
0
0
0
0
0
0
0
0
0
0
0
0
0
0
0
0
0
0
0
0
0
0
0
0
0
0
0
0
0
0
0
0
0
0
0
0
0
0
0
0
0
0
0
0
0
0
0
0
0
0
0
0
0
0
0
0
0
0
0
0
0
0
0
0
0
0
0
0
0
0
0
CELL_DATA 127
SCALARS SlipSystem integer
LOOKUP_TABLE default
3
3
3
3
1
1
1
1
2
2
2
2
2
2
2
2
1
1
3
3
2
2
2
2
1
1
3
3
2
2
2
2
3
3
3
3
3
3
3
3
1
1
3
3
1
1
1
1
1
1
1
1
1
1
1
1
2
2
2
2
2
2
2
2
13
13
2
2
2
2
2
2
2
2
2
2
2
2
2
2
2
1
1
1
1
1
1
3
3
3
1
3
3
3
3
3
3
2
2
2
2
2
2
2
2
2
2
2
2
1
1
1
1
3
2
2
2
2
2
2
2
1
3
3
13
1
1
