# vtk DataFile Version 1.0
dislocation microstructure
ASCII
DATASET POLYDATA
POINTS 264 float
-1.407136E+02		-2.213016E+02		3.620151E+02
-4.069171E+02		1.959506E+01		3.873221E+02
-2.678171E+02		5.735064E+02		-3.056893E+02
-3.585793E+02		4.159045E+02		-5.732522E+01
2.435975E+02		5.088909E+02		-7.524885E+02
-3.645297E+01		4.790810E+02		-4.426281E+02
1.137360E+01		4.804267E+01		-5.941627E+01
2.977420E+02		-2.208350E+02		-7.690702E+01
-3.705953E+02		-3.364613E+02		7.070566E+02
-2.633774E+02		-5.962946E+01		3.230069E+02
-5.059046E+01		-1.177741E+02		1.683646E+02
-3.709113E+00		-3.770962E+02		3.808053E+02
-5.645235E+02		3.793574E+02		1.851661E+02
-3.703694E+02		9.044315E+01		2.799262E+02
-5.304416E+02		4.354699E+02		9.497178E+01
-5.136564E+02		1.737037E+02		3.399526E+02
-4.002894E+02		6.227393E+02		-2.224499E+02
-1.296146E+02		4.379697E+02		-3.083551E+02
3.132033E+01		-1.863970E+02		1.550767E+02
-2.594066E+02		2.052232E+02		5.418340E+01
5.559540E+02		2.224913E+01		-5.782031E+02
6.021915E+02		-3.324134E+02		-2.697781E+02
-9.943729E+01		-2.899623E+02		3.893996E+02
3.188077E+01		-5.505567E+02		5.186760E+02
-2.457631E+02		2.346175E+02		1.114560E+01
-1.949524E+01		-1.452330E+02		1.647282E+02
-9.431446E+01		-1.438880E+02		2.382025E+02
6.056207E+02		4.296879E+01		-6.485895E+02
-9.471371E+01		-1.519378E+02		2.466516E+02
-1.105044E+02		-2.076066E+02		3.181110E+02
-1.950477E+02		1.445374E+02		5.051025E+01
-4.482793E+02		6.300943E+00		4.419783E+02
1.373027E+02		-3.529064E+02		2.156037E+02
-3.679651E+02		6.270625E+02		-2.590974E+02
-3.467906E+02		2.225508E+02		1.242398E+02
-2.810085E+02		5.608896E+02		-2.798811E+02
-3.437779E+02		2.124279E+02		1.313500E+02
7.467738E+02		-5.762130E+01		-6.891525E+02
-4.811482E+02		4.814940E+02		-3.458079E-01
1.401427E+02		5.873527E+02		-7.274954E+02
-1.227499E+02		-1.372921E+02		2.600420E+02
5.681381E+02		-4.758636E+01		-5.205518E+02
-6.550237E+01		-1.052189E+02		1.707213E+02
6.329232E+02		-2.165875E+02		-4.163358E+02
2.166093E+02		-1.421851E+02		-7.442417E+01
5.789571E+02		-7.672238E+01		-5.022347E+02
6.296412E+02		1.326376E+02		-7.622788E+02
-5.544650E+02		-3.741073E+01		5.918757E+02
-5.566199E+02		-1.614978E+02		7.181177E+02
-4.796449E+02		-2.881326E+02		7.677774E+02
-4.099312E+02		-3.298635E+02		7.397947E+02
-5.054294E+02		1.986213E+02		3.068082E+02
6.196866E+02		-1.770805E+02		-4.426061E+02
5.987732E+02		-1.235607E+02		-4.752125E+02
-3.035571E+02		9.493056E+02		-6.457484E+02
-5.115791E+02		-2.549509E+02		7.665300E+02
8.170584E+02		-2.971291E+02		-5.199292E+02
2.081222E+02		-4.343748E+02		2.262526E+02
1.974229E+02		-4.960051E+02		2.985822E+02
-5.305782E+02		3.685294E+02		1.620488E+02
-3.797372E+02		5.695616E+02		-1.898244E+02
6.596513E+02		-3.870475E+02		-2.726038E+02
-3.501098E+02		1.668914E+02		1.832184E+02
-5.186284E+02		5.475403E+02		-2.891198E+01
-4.631658E+02		4.287672E+02		3.439855E+01
-3.913627E+02		2.028597E+02		1.885030E+02
-4.810187E+02		4.593247E+02		2.169398E+01
8.219459E+02		-2.308592E+02		-5.910867E+02
-2.709577E+02		9.298931E+02		-6.589354E+02
-4.337994E+02		3.795403E+02		5.425914E+01
3.689122E+01		6.512195E+02		-6.881108E+02
3.855619E+02		-4.361363E+02		5.057444E+01
-1.749659E+02		-1.213230E+02		2.962889E+02
-2.898786E+02		6.083779E+02		-3.184992E+02
2.063432E+02		-4.039948E+02		1.976516E+02
6.350739E+02		-4.414553E+02		-1.936186E+02
-1.019708E+02		1.922972E+02		-9.032642E+01
-2.037438E+02		2.424126E+02		-3.866883E+01
6.469127E+02		-2.797253E+02		-3.671874E+02
8.222215E+02		-2.652715E+02		-5.569500E+02
7.733578E+02		-9.344976E+01		-6.799080E+02
6.385846E+02		2.712331E+01		-6.657079E+02
7.608416E+02		-3.726672E+02		-3.881744E+02
6.840596E+02		-3.888666E+02		-2.951930E+02
-1.811116E+02		5.138944E+02		-3.327828E+02
-1.969465E+01		-3.403189E+02		3.600136E+02
-6.005121E+01		-3.066584E+02		3.667096E+02
1.365492E+02		-5.624973E+02		4.259481E+02
7.557098E+01		-5.676455E+02		4.920745E+02
-4.727323E+02		2.260075E+02		2.467247E+02
2.431240E+02		-3.878778E+02		1.447537E+02
-2.222163E+02		5.398314E+02		-3.176150E+02
8.924119E+01		5.604119E+02		-6.496531E+02
4.356981E+01		-8.158669E+01		3.801688E+01
-4.782609E+00		4.366796E+02		-4.318970E+02
1.134673E+02		4.706064E+02		-5.840737E+02
-4.294598E+02		2.520907E+02		1.773691E+02
-4.472728E+02		2.980896E+02		1.491832E+02
-3.654377E+02		2.562654E+02		1.091723E+02
-4.187134E+02		3.507594E+02		6.795399E+01
-4.941348E+02		2.120521E+02		2.820827E+02
1.815114E+02		5.348068E+02		-7.163182E+02
-5.007020E+02		4.573687E+02		4.333330E+01
-3.561847E+02		1.018098E+02		2.543749E+02
-1.278453E+02		5.589776E+01		7.194752E+01
1.102026E+02		-4.621293E+01		-6.398969E+01
-5.634872E+02		-8.873534E+01		6.522226E+02
-5.330545E+02		2.048431E+00		5.310061E+02
-5.630240E+02		-1.211996E+02		6.842236E+02
-5.366808E+02		-2.156461E+02		7.523269E+02
2.028029E+02		-3.892701E+02		1.864673E+02
-5.154104E+02		1.627305E+01		4.991373E+02
1.709484E+02		-3.715091E+02		2.005607E+02
1.097115E+02		4.981437E+02		-6.078552E+02
-5.759581E+02		6.028943E+02		-2.693619E+01
-4.756985E+02		5.002312E+02		-2.453271E+01
-3.055807E+02		5.671722E+02		-2.615916E+02
-9.771762E+01		8.010598E+02		-7.033422E+02
-5.085655E+01		1.159833E+02		-6.512674E+01
-4.132146E+02		5.340648E+02		-1.208503E+02
-4.348588E+01		8.159053E+01		-3.810465E+01
1.925602E+02		-1.190283E+02		-7.353187E+01
-1.489555E+02		2.277582E+02		-7.880265E+01
-6.934537E+01		1.520313E+02		-8.268590E+01
8.158452E+02		-1.924746E+02		-6.233706E+02
8.058784E+02		-3.264066E+02		-4.794718E+02
3.313218E+02		-4.019085E+02		7.058672E+01
1.761644E+02		-5.337191E+02		3.575547E+02
-3.328068E+02		6.353783E+02		-3.025715E+02
3.672033E+00		6.880312E+01		-7.247515E+01
-5.604084E+02		-6.135948E+01		6.217679E+02
-5.455705E+02		-1.624190E+01		5.618124E+02
-3.661448E+02		9.866980E+02		-6.205532E+02
5.840505E+02		3.242834E+01		-6.164788E+02
7.159444E+02		-2.594456E+01		-6.899999E+02
4.206471E+02		-4.546901E+02		3.404309E+01
-1.374056E+02		8.353262E+02		-6.979207E+02
-2.393919E+02		-8.602685E+01		3.254188E+02
6.496505E+02		-3.849850E+02		-2.646655E+02
7.250862E+02		-3.853393E+02		-3.397469E+02
6.329526E+02		1.522182E+02		-7.851708E+02
1.290416E+02		6.874551E+02		-8.164967E+02
4.731543E+01		-2.878364E+02		2.405210E+02
1.567089E+01		-2.524009E+02		2.367300E+02
9.737115E+01		4.209923E+02		-5.183635E+02
-4.845361E+02		5.161311E+02		-3.159501E+01
7.269591E+01		5.939026E+02		-6.665985E+02
-4.934583E+02		3.458353E+02		1.476230E+02
5.559730E+01		-1.190464E+02		6.344908E+01
-4.443309E+02		-3.135903E+02		7.579212E+02
-1.597874E+02		9.966872E+01		6.011871E+01
-1.419126E+02		4.738709E+02		-3.319584E+02
1.025759E+02		5.254357E+02		-6.280116E+02
-3.674766E+02		1.789894E+02		1.884873E+02
7.874303E+02		-3.524077E+02		-4.350226E+02
6.337365E+01		4.086899E+02		-4.720635E+02
8.015778E+02		-1.477482E+02		-6.538296E+02
-5.195964E+02		4.503161E+02		6.928030E+01
-2.195317E+02		8.967450E+02		-6.772133E+02
4.915691E+02		-4.796878E+02		-1.188136E+01
5.625808E+02		-2.780167E+01		-5.347791E+02
-2.887425E+01		7.325853E+02		-7.037110E+02
5.595031E+02		-2.771287E+00		-5.567318E+02
-6.749155E+02		7.131323E+02		-3.821680E+01
-2.601657E+01		-1.391808E+02		1.651974E+02
-2.059624E+02		-1.073445E+02		3.133069E+02
-2.282561E+02		2.366221E+02		-8.365946E+00
-1.775409E+02		8.668289E+02		-6.892880E+02
-1.470372E+02		-1.307395E+02		2.777767E+02
5.269223E+02		-4.847762E+02		-4.214610E+01
2.051799E+02		-4.664839E+02		2.613040E+02
-4.011246E+02		4.575570E+02		-5.643239E+01
5.594378E+01		6.225128E+02		-6.784566E+02
-6.417644E+02		6.761326E+02		-3.436813E+01
2.743364E+02		-3.748820E+02		1.005455E+02
-3.342343E+02		9.671372E+02		-6.329029E+02
1.393678E+02		-7.004885E+01		-6.931891E+01
6.433315E+02		-2.567410E+02		-3.865904E+02
1.891005E+02		-5.144292E+02		3.253287E+02
-9.823179E+01		-1.806335E+02		2.788653E+02
-4.692164E+02		3.245031E+02		1.447133E+02
-3.336185E+02		5.743563E+02		-2.407378E+02
-4.225585E+02		5.062639E+02		-8.370539E+01
4.487639E+01		-1.745067E+02		1.296303E+02
-3.494285E+02		1.553356E+02		1.940929E+02
6.140066E+02		7.724813E+01		-6.912548E+02
6.482381E+02		-3.291318E+02		-3.191063E+02
-3.531957E+02		6.351694E+02		-2.819737E+02
-9.984262E+01		1.010930E+01		8.973333E+01
-6.878375E+02		7.263762E+02		-3.853873E+01
-6.032567E+02		6.321079E+02		-2.885124E+01
2.503390E+02		-1.721441E+02		-7.819496E+01
6.375705E+02		1.789261E+02		-8.164967E+02
-2.527735E+01		-1.701736E+02		1.954510E+02
8.508470E+01		4.085280E+02		-4.936127E+02
-3.470384E+02		1.261127E+02		2.209258E+02
7.938504E+01		-2.315435E+01		-5.623070E+01
-4.884465E+02		2.057750E+01		4.678690E+02
1.582667E+02		5.600303E+02		-7.182970E+02
-5.226254E+02		5.641123E+01		4.662141E+02
-4.007603E+02		5.501805E+02		-1.494202E+02
-3.925760E+02		3.019649E+02		9.061111E+01
7.050588E+02		-3.879574E+02		-3.171015E+02
-2.553980E+02		5.534490E+02		-2.980511E+02
1.091188E+02		-5.689991E+02		4.598803E+02
1.587590E+02		-5.502367E+02		3.914778E+02
1.112275E+02		-3.372228E+02		2.259953E+02
-5.461002E+02		9.424041E+01		4.518598E+02
2.101437E+02		5.135232E+02		-7.236669E+02
-1.181913E+01		-2.082875E+02		2.201067E+02
-3.753979E+02		6.118084E+02		-2.364105E+02
-5.486120E+02		5.755591E+02		-2.694703E+01
-4.002435E+02		1.013970E+03		-6.137266E+02
5.262342E+01		-1.586029E+02		1.059794E+02
2.373434E+02		-1.609358E+02		-7.640760E+01
-3.434697E+02		1.856825E+02		1.577872E+02
-8.385876E+01		-2.296360E+01		1.068224E+02
6.499137E+02		-3.025379E+02		-3.473757E+02
-3.110952E+02		6.258042E+02		-3.147090E+02
-7.182135E+01		-5.697941E+01		1.288008E+02
-2.392692E+02		2.141394E+02		2.512979E+01
-3.821044E+02		4.342419E+02		-5.213750E+01
-4.363907E+02		2.364348E+02		1.999559E+02
-6.261447E+01		7.677567E+02		-7.051422E+02
-6.704522E+01		-8.155054E+01		1.485958E+02
4.328298E+00		6.941410E+02		-6.984693E+02
-4.149749E+02		4.831921E+02		-6.821723E+01
5.911507E+02		-4.755214E+02		-1.156292E+02
6.256178E+02		1.124276E+02		-7.380453E+02
4.549578E+02		-4.690144E+02		1.405659E+01
6.772084E+02		4.454442E+00		-6.816629E+02
-4.224093E+02		8.556836E+00		4.138525E+02
8.135551E+01		-3.167060E+02		2.353505E+02
7.436645E+02		-3.800483E+02		-3.636162E+02
-5.575889E+02		1.820305E+02		3.755584E+02
5.609972E+01		-1.406975E+02		8.459777E+01
1.268125E+02		6.164757E+02		-7.432883E+02
5.608688E+02		-4.835873E+02		-7.728153E+01
3.578074E+02		-4.191593E+02		6.135191E+01
-5.615908E+02		1.361207E+02		4.254701E+02
6.156694E+02		-4.614106E+02		-1.542588E+02
4.106351E+01		4.103068E+02		-4.513703E+02
1.091396E+02		4.340344E+02		-5.431740E+02
-5.152121E+02		1.827010E+02		3.325111E+02
-4.474101E+02		4.038930E+02		4.351705E+01
-3.607682E+02		5.807875E+02		-2.200193E+02
-1.786105E+02		2.394226E+02		-6.081212E+01
-2.453617E+02		9.138183E+02		-6.684565E+02
6.356384E+02		-3.486001E+02		-2.870383E+02
2.738864E+02		-1.921855E+02		-8.170082E+01
5.642998E+02		1.775578E+01		-5.820556E+02
6.095041E+02		-1.502062E+02		-4.592979E+02
-5.377176E+02		1.898586E+02		3.478590E+02
1.667306E+02		-9.442021E+01		-7.231043E+01
1.197409E+02		6.536328E+02		-7.733738E+02
6.465536E+02		-4.203757E+02		-2.261779E+02
-5.485009E+02		-1.880244E+02		7.365253E+02
-7.271282E+01		-1.312157E+02		2.039285E+02
-2.211235E+02		1.840577E+02		3.706578E+01
-2.101794E+02		1.669055E+02		4.327397E+01
7.888358E+02		-1.205287E+02		-6.683071E+02
2.647294E+02		-3.774139E+02		1.126845E+02
3.072848E+02		-3.870179E+02		7.973310E+01
-5.638361E+02		1.612062E+02		4.026299E+02
LINES 255 765
2		0		29
2		1		231
2		2		73
2		3		221
2		4		208
2		5		94
2		6		129
2		7		249
2		8		50
2		9		137
2		10		164
2		11		85
2		12		59
2		13		103
2		14		157
2		15		243
2		16		210
2		17		151
2		18		183
2		19		220
2		20		250
2		21		248
2		22		86
2		23		88
2		24		220
2		25		164
2		26		28
2		26		257
2		26		40
2		27		185
2		27		133
2		27		81
2		28		179
2		29		179
2		30		150
2		30		259
2		31		231
2		31		197
2		32		206
2		32		112
2		33		187
2		33		210
2		34		98
2		34		36
2		35		203
2		35		116
2		36		215
2		37		134
2		37		80
2		38		115
2		38		66
2		39		236
2		39		198
2		40		168
2		41		160
2		41		45
2		42		257
2		42		224
2		43		177
2		43		52
2		44		214
2		44		121
2		45		53
2		46		228
2		46		140
2		47		130
2		47		131
2		48		108
2		48		256
2		49		149
2		49		55
2		50		149
2		51		243
2		51		100
2		52		251
2		53		251
2		54		175
2		54		68
2		55		109
2		56		125
2		56		79
2		57		170
2		57		74
2		58		170
2		58		178
2		59		147
2		60		245
2		60		200
2		61		138
2		61		83
2		62		215
2		62		184
2		63		211
2		63		145
2		64		244
2		64		66
2		65		222
2		65		153
2		66		102
2		67		124
2		67		79
2		68		247
2		69		99
2		69		244
2		70		225
2		70		172
2		71		135
2		71		238
2		72		165
2		72		168
2		73		218
2		74		110
2		75		255
2		75		240
2		76		122
2		76		123
2		77		166
2		77		246
2		78		217
2		78		177
2		80		260
2		81		230
2		82		154
2		82		233
2		83		202
2		84		151
2		84		91
2		85		86
2		87		204
2		87		205
2		88		204
2		89		222
2		89		100
2		90		110
2		90		261
2		91		203
2		92		152
2		92		146
2		93		148
2		94		241
2		95		242
2		95		113
2		96		97
2		96		222
2		97		180
2		98		201
2		99		201
2		101		208
2		101		198
2		102		157
2		103		195
2		104		188
2		104		150
2		105		176
2		105		196
2		106		108
2		106		130
2		107		111
2		107		131
2		109		256
2		110		112
2		111		197
2		113		152
2		114		211
2		114		190
2		115		145
2		116		181
2		117		136
2		117		223
2		118		123
2		118		120
2		119		200
2		119		182
2		121		253
2		122		246
2		124		156
2		125		154
2		126		238
2		126		262
2		127		205
2		127		178
2		128		187
2		128		218
2		132		175
2		132		212
2		133		250
2		134		230
2		135		229
2		136		167
2		137		165
2		138		248
2		138		255
2		139		202
2		139		233
2		140		192
2		141		254
2		142		232
2		142		143
2		143		209
2		144		242
2		144		194
2		146		172
2		147		180
2		148		235
2		153		184
2		155		241
2		155		194
2		156		260
2		158		167
2		158		247
2		159		229
2		159		169
2		160		162
2		161		223
2		161		225
2		162		250
2		163		173
2		163		189
2		164		193
2		166		220
2		169		237
2		171		221
2		171		226
2		173		190
2		174		261
2		174		262
2		176		253
2		181		245
2		182		226
2		183		213
2		184		195
2		185		228
2		186		217
2		186		248
2		188		216
2		191		249
2		191		214
2		193		209
2		197		199
2		199		207
2		206		232
2		207		239
2		210		245
2		213		235
2		216		219
2		219		224
2		220		258
2		227		237
2		227		240
2		234		252
2		234		263
2		236		254
2		239		263
2		243		252
2		258		259
POINT_DATA 264
scalars NodeType integer
LOOKUP_TABLE default
7
7
7
7
7
7
7
7
7
7
7
7
7
7
7
7
7
7
7
7
7
7
7
7
7
7
0
0
0
0
0
0
0
0
0
0
0
0
0
0
0
0
0
0
0
0
0
0
0
0
0
0
0
0
0
0
0
0
0
0
0
0
0
0
0
0
0
0
0
0
0
0
0
0
0
0
0
0
0
0
0
0
0
0
0
0
0
0
0
0
0
0
0
9
0
0
0
0
0
0
0
0
0
0
0
0
0
0
0
0
0
0
0
0
0
0
0
0
0
0
9
0
0
0
0
0
0
0
0
9
0
0
0
0
0
0
0
0
0
0
0
8
0
0
0
0
0
0
0
0
0
0
0
0
0
0
0
0
0
0
0
0
0
0
0
0
0
0
0
0
0
0
0
0
0
0
0
0
0
0
0
0
0
0
0
0
0
0
0
8
0
0
8
0
0
0
9
0
0
0
0
0
0
0
0
0
0
0
0
0
0
0
8
0
0
0
0
0
0
0
0
0
0
0
0
0
0
0
0
0
0
0
0
0
0
0
0
0
0
0
0
0
0
0
0
0
0
0
0
0
0
0
0
0
0
0
0
0
0
0
0
0
0
0
CELL_DATA 255
SCALARS SlipSystem integer
LOOKUP_TABLE default
3
3
3
3
1
1
1
1
2
2
2
2
2
2
2
2
1
1
3
3
2
2
2
2
1
1
3
1
2
1
3
2
3
3
1
1
3
3
3
3
3
3
3
3
1
1
3
2
2
1
1
1
1
2
1
1
1
1
1
1
1
1
1
1
1
2
2
2
2
2
2
2
3
3
1
1
1
1
2
2
2
2
2
2
2
2
3
3
2
2
3
3
1
1
3
3
1
1
2
2
2
1
3
3
1
1
1
1
2
2
3
2
1
1
3
3
3
3
1
1
2
2
2
2
2
1
1
2
2
2
2
3
3
1
1
1
1
1
3
1
1
1
2
2
2
3
3
1
1
2
2
1
1
1
1
2
2
2
2
2
3
2
1
1
1
1
1
1
1
3
3
3
3
1
3
2
2
1
1
2
2
3
3
1
1
3
2
1
1
2
3
1
2
2
1
1
3
3
3
1
1
1
2
3
1
1
1
2
1
1
1
1
1
1
1
1
1
1
3
3
1
3
3
1
1
1
1
1
3
3
2
1
1
1
1
1
1
3
1
1
3
1
2
3
1
1
1
1
1
1
1
1
1
1
1
