# vtk DataFile Version 1.0
dislocation microstructure
ASCII
DATASET POLYDATA
POINTS 230 float
-1.407136E+02		-2.213016E+02		3.620151E+02
-4.069171E+02		1.959506E+01		3.873221E+02
-2.678171E+02		5.735064E+02		-3.056893E+02
-3.585793E+02		4.159045E+02		-5.732522E+01
2.435975E+02		5.088909E+02		-7.524885E+02
-3.645297E+01		4.790810E+02		-4.426281E+02
1.137360E+01		4.804267E+01		-5.941627E+01
2.977420E+02		-2.208350E+02		-7.690702E+01
-3.705953E+02		-3.364613E+02		7.070566E+02
-2.633774E+02		-5.962946E+01		3.230069E+02
-5.059046E+01		-1.177741E+02		1.683646E+02
-3.709113E+00		-3.770962E+02		3.808053E+02
-5.645235E+02		3.793574E+02		1.851661E+02
-3.703694E+02		9.044315E+01		2.799262E+02
-5.304416E+02		4.354699E+02		9.497178E+01
-5.136564E+02		1.737037E+02		3.399526E+02
-4.002894E+02		6.227393E+02		-2.224499E+02
-1.296146E+02		4.379697E+02		-3.083551E+02
3.132033E+01		-1.863970E+02		1.550767E+02
-2.594066E+02		2.052232E+02		5.418340E+01
5.559540E+02		2.224913E+01		-5.782031E+02
6.021915E+02		-3.324134E+02		-2.697781E+02
-9.943729E+01		-2.899623E+02		3.893996E+02
3.188077E+01		-5.505567E+02		5.186760E+02
-2.457631E+02		2.346175E+02		1.114560E+01
-1.949524E+01		-1.452330E+02		1.647282E+02
-1.917230E+02		-6.479053E+01		2.565135E+02
7.788800E+01		-1.404302E+02		6.254222E+01
-1.481271E+02		-1.331451E+02		2.812722E+02
-1.330752E+02		-1.879379E+02		3.210131E+02
-4.266389E+02		2.005734E+01		4.065815E+02
-4.160454E+02		2.667482E+01		3.893706E+02
-3.945681E+02		5.623840E+02		-1.678159E+02
-3.524648E+02		6.020204E+02		-2.495556E+02
-7.929271E+01		2.964310E+02		-2.171383E+02
-3.990009E+02		4.927731E+02		-9.377225E+01
-3.844014E+02		4.505980E+02		-6.619657E+01
2.716264E+02		1.834764E+02		-4.551028E+02
3.932935E+02		2.180846E+02		-6.113781E+02
4.008600E+02		4.114475E+02		-8.123075E+02
9.456375E+01		2.268193E+02		-3.213830E+02
-5.390744E+01		3.236297E+02		-2.697222E+02
2.652004E+02		7.623365E+01		-3.414340E+02
2.932162E+01		2.164359E+02		-2.457576E+02
-4.627149E+02		8.221634E+02		-3.594484E+02
4.056128E+02		-8.650979E+01		-3.191030E+02
4.642096E+02		-2.518962E+02		-2.123134E+02
-4.684893E+02		-9.341861E+01		5.619079E+02
-4.757661E+02		-1.890535E+02		6.648197E+02
-4.501397E+02		-2.701330E+02		7.202727E+02
-4.109895E+02		-3.136151E+02		7.246046E+02
-4.482862E+02		-1.708749E+01		4.653736E+02
4.419708E+02		-1.557646E+02		-2.862062E+02
4.252552E+02		-1.207019E+02		-3.045533E+02
1.118369E+02		-2.939977E+02		1.821607E+02
8.955454E+01		-2.396508E+02		1.500962E+02
7.310621E+02		-2.440330E+02		-4.870291E+02
1.156076E+02		-3.848685E+02		2.692609E+02
1.088703E+02		-4.392131E+02		3.303428E+02
-5.314141E+02		3.610421E+02		1.703720E+02
-2.955952E+02		1.934943E+02		1.021009E+02
-3.034999E+02		1.145353E+02		1.889645E+02
-3.255558E+02		8.833144E+01		2.372243E+02
-4.153118E+02		3.878773E+02		2.743447E+01
-4.860551E+02		4.296397E+02		5.641534E+01
-4.574943E+02		2.159099E+02		2.415844E+02
-4.801459E+02		1.827393E+02		2.974066E+02
7.289379E+02		-1.926243E+02		-5.363136E+02
-2.900290E+02		7.677074E+02		-4.776784E+02
-4.923137E+02		8.143569E+02		-3.220432E+02
-8.677519E+01		6.024599E+02		-5.156847E+02
3.891739E+02		-3.067231E+02		-8.245082E+01
2.222190E+02		1.109361E+02		-3.331551E+02
-2.936447E+02		5.957799E+02		-3.021352E+02
1.172477E+02		-3.631343E+02		2.458866E+02
4.567266E+02		-2.861049E+02		-1.706217E+02
-1.229773E+02		1.565092E+02		-3.353189E+01
-1.945366E+02		2.041990E+02		-9.662367E+00
-2.343434E+02		2.142799E+02		2.006344E+01
7.312524E+02		-2.186604E+02		-5.125920E+02
7.023483E+02		-9.987651E+01		-6.024718E+02
6.356440E+02		-1.352463E+01		-6.221194E+02
7.077322E+02		-3.143211E+02		-3.934111E+02
6.615783E+02		-3.418694E+02		-3.197089E+02
-1.277009E+02		4.089982E+02		-2.812972E+02
-2.372771E+01		-3.402221E+02		3.639498E+02
-6.123722E+01		-3.083366E+02		3.695738E+02
9.382832E+01		-5.170181E+02		4.231898E+02
6.590034E+01		-5.451073E+02		4.792070E+02
-4.663068E+02		1.967831E+02		2.695237E+02
-1.462416E+01		2.462832E+02		-2.316590E+02
-1.639019E+02		3.502942E+02		-1.863923E+02
-3.280579E+02		3.482523E+02		-2.019437E+01
6.832527E+01		-1.188116E+02		5.048637E+01
1.060202E+02		1.803202E+02		-2.863405E+02
-1.777847E+02		-8.311245E+01		2.608971E+02
-4.573106E+02		2.579861E+02		1.993245E+02
-4.714538E+02		2.955535E+02		1.759003E+02
-3.221442E+02		2.693559E+02		5.278826E+01
-3.546768E+02		3.234532E+02		3.122361E+01
-3.778928E+02		5.871484E+02		-2.092556E+02
-4.017083E+02		5.303549E+02		-1.286466E+02
1.984230E+02		1.909718E+02		-3.893948E+02
3.310335E+02		1.903270E+02		-5.213605E+02
1.751961E+02		1.429696E+02		-3.181657E+02
3.394015E+02		2.193588E+00		-3.415951E+02
-4.750756E+02		-1.362906E+02		6.113662E+02
-4.595538E+02		-5.462782E+01		5.141816E+02
-4.766265E+02		-1.607768E+02		6.374033E+02
-4.696646E+02		-2.242983E+02		6.939628E+02
-4.395010E+02		3.159848E+00		4.363411E+02
-4.543773E+02		-3.587939E+01		4.902567E+02
9.575748E+01		-2.469027E+02		1.511452E+02
1.173867E+02		-3.392993E+02		2.219125E+02
-2.924538E+02		1.528510E+02		1.396027E+02
-3.066867E+02		2.322255E+02		7.446121E+01
-2.350711E+02		3.773595E+02		-1.422884E+02
-1.734278E+02		6.857717E+02		-5.123439E+02
-7.359872E+01		1.111480E+02		-3.754929E+01
4.331356E+01		-8.159801E+01		3.828446E+01
-4.843025E+01		8.114388E+01		-3.271363E+01
1.223905E+02		2.145003E+02		-3.368908E+02
-1.556865E+02		1.815175E+02		-2.583104E+01
-9.546990E+01		1.325336E+02		-3.706369E+01
7.241465E+02		-1.652569E+02		-5.588895E+02
7.278357E+02		-2.687022E+02		-4.591335E+02
5.297252E+00		2.319198E+02		-2.372170E+02
1.046783E+02		-4.779727E+02		3.732944E+02
-3.240916E+02		6.053036E+02		-2.812120E+02
4.227470E+00		6.850210E+01		-7.272957E+01
-4.721917E+02		-1.141088E+02		5.863006E+02
-4.642379E+02		-7.371071E+01		5.379486E+02
6.092483E+01		2.002045E+02		-2.611294E+02
5.904792E+02		1.392399E+01		-6.044032E+02
6.767065E+02		-5.648123E+01		-6.202253E+02
-4.133573E+02		9.336417E+01		3.199932E+02
-2.007975E+02		7.076856E+02		-5.068881E+02
-2.377822E+02		-6.729429E+01		3.050765E+02
6.310220E+02		-3.421422E+02		-2.888797E+02
6.878937E+02		-3.319371E+02		-3.559566E+02
4.305723E+02		2.737071E+02		-7.042794E+02
2.874993E+02		5.231647E+02		-8.106639E+02
1.816694E+01		2.703438E+02		-2.885107E+02
4.358416E+01		-2.213095E+02		1.777253E+02
-3.774204E+02		8.083528E+02		-4.309324E+02
-4.507423E+02		6.383998E+02		-1.876575E+02
-6.354394E+01		5.737662E+02		-5.102222E+02
-5.023046E+02		3.366322E+02		1.656724E+02
-3.779330E+02		3.516452E+02		2.628775E+01
-3.383704E+02		2.995836E+02		3.878674E+01
-2.588165E+02		3.288182E+01		2.259347E+02
-2.965060E+02		1.322835E+02		1.642225E+02
-4.369643E+01		5.440285E+02		-5.003321E+02
-1.013680E+02		3.704340E+02		-2.690660E+02
7.204622E+02		-2.927134E+02		-4.277488E+02
3.462348E+02		-2.853043E+02		-6.093045E+01
7.160298E+02		-1.349422E+02		-5.810876E+02
1.504949E+02		2.040573E+02		-3.545522E+02
-2.543438E+02		7.457459E+02		-4.914021E+02
3.036440E+02		4.037517E+01		-3.440192E+02
3.739502E+02		-4.037364E+01		-3.335765E+02
-1.285304E+02		6.457811E+02		-5.172506E+02
3.623327E+02		2.004312E+02		-5.627639E+02
-5.166217E+02		7.324148E+02		-2.157931E+02
-1.957048E+01		-1.450872E+02		1.646577E+02
-2.158296E+02		-6.825264E+01		2.840823E+02
4.301315E+02		3.398545E+02		-7.699860E+02
-2.273392E+02		7.273140E+02		-4.999747E+02
2.374260E+02		1.849977E+02		-4.224237E+02
4.311075E+02		-3.081380E+02		-1.229695E+02
1.123159E+02		-4.114155E+02		2.990996E+02
-2.882622E+02		2.567206E+02		3.154161E+01
-4.307785E+02		8.211881E+02		-3.904096E+02
-3.064094E+02		2.783385E+02		2.807087E+01
3.019400E+02		1.852984E+02		-4.872384E+02
-3.319233E+02		7.897612E+02		-4.578379E+02
3.868242E+02		4.296725E+02		-8.164967E+02
4.577138E+02		-2.018569E+02		-2.558569E+02
1.070571E+02		-4.564377E+02		3.493806E+02
-1.377321E+02		-1.613217E+02		2.990538E+02
-1.999841E+01		2.969283E+02		-2.769299E+02
-7.695447E+01		3.445001E+02		-2.675456E+02
-4.504617E+02		4.126017E+02		3.786001E+01
4.615003E+01		-1.754267E+02		1.292767E+02
-1.200528E+02		3.248836E+02		-2.048308E+02
4.156962E+02		2.412993E+02		-6.569956E+02
5.526891E+01		2.475179E+02		-3.027868E+02
-2.845843E+02		3.815627E+02		-9.697843E+01
-2.212917E+02		-9.460367E+00		2.307521E+02
-5.189527E+02		7.819809E+02		-2.630281E+02
-4.943367E+02		6.855503E+02		-1.912136E+02
3.102387E+02		-2.508750E+02		-5.936368E+01
-4.537283E+01		2.702811E+02		-2.249083E+02
-3.638915E+00		-1.732468E+02		1.768857E+02
-2.774749E+01		5.086988E+02		-4.809513E+02
-3.669870E+02		9.210536E+01		2.748816E+02
1.408296E+02		1.628733E+02		-3.037029E+02
3.028455E+02		5.136512E+02		-8.164967E+02
2.510594E+02		5.316207E+02		-7.826801E+02
4.341625E+02		3.057644E+02		-7.399269E+02
1.103965E+02		-2.168675E+02		1.064710E+02
-3.214208E+02		3.025753E+02		1.884549E+01
4.190724E+02		3.753010E+02		-7.943733E+02
-1.989371E+02		3.660578E+02		-1.671207E+02
8.215306E+01		-5.334452E+02		4.512922E+02
1.007699E+02		-4.982995E+02		3.975296E+02
-3.141884E+02		9.827419E+01		2.159142E+02
-3.115397E+02		3.724124E+02		-6.087266E+01
-4.291055E+02		6.907420E+01		3.600313E+02
-2.856377E+02		5.741627E+01		2.282215E+02
1.662728E+01		-1.976868E+02		1.810595E+02
-4.221864E+02		6.211982E+02		-1.990118E+02
-4.735822E+02		6.595296E+02		-1.859474E+02
-4.045183E+02		8.161725E+02		-4.116543E+02
5.877540E+01		-1.635905E+02		1.048151E+02
1.052053E+02		-1.835910E+02		7.838569E+01
-5.083807E+02		8.008347E+02		-2.924540E+02
-1.614542E+02		-1.079697E+02		2.694239E+02
-2.602307E+02		3.812045E+02		-1.209738E+02
4.623730E+02		-2.272058E+02		-2.351673E+02
-3.904469E+02		9.741993E+01		2.930270E+02
-5.206338E+02		7.587136E+02		-2.380798E+02
-2.041321E+02		-3.648299E+01		2.406151E+02
-2.668994E+02		2.417502E+02		2.514914E+01
1.149298E+02		-3.168436E+02		2.019138E+02
1.744937E+02		1.972695E+02		-3.717633E+02
-1.508997E+02		6.659423E+02		-5.150426E+02
3.778530E+02		2.091951E+02		-5.870481E+02
-1.075617E+02		6.242134E+02		-5.166517E+02
-3.249715E+02		3.254700E+02		-4.984881E-01
LINES 218 654
2		0		29
2		1		31
2		2		73
2		3		36
2		4		198
2		5		194
2		6		129
2		7		191
2		8		50
2		9		137
2		10		164
2		11		85
2		12		59
2		13		195
2		14		64
2		15		66
2		16		211
2		17		84
2		18		183
2		19		78
2		20		133
2		21		138
2		22		86
2		23		88
2		24		223
2		25		164
2		26		95
2		26		222
2		26		165
2		27		93
2		27		214
2		27		215
2		28		179
2		28		217
2		29		179
2		30		110
2		30		31
2		31		208
2		32		100
2		32		101
2		33		100
2		33		128
2		34		184
2		34		192
2		35		101
2		35		36
2		37		168
2		37		174
2		38		185
2		38		227
2		39		202
2		39		176
2		40		186
2		40		121
2		41		181
2		41		180
2		42		72
2		42		159
2		43		132
2		43		126
2		44		172
2		44		69
2		45		160
2		45		53
2		46		75
2		46		219
2		47		130
2		47		131
2		48		108
2		48		109
2		49		109
2		49		50
2		51		110
2		51		111
2		52		177
2		52		53
2		54		112
2		54		224
2		55		112
2		55		143
2		55		200
2		56		125
2		56		79
2		57		170
2		57		74
2		58		170
2		58		178
2		59		147
2		60		114
2		60		115
2		61		206
2		61		151
2		62		206
2		62		195
2		62		209
2		63		148
2		63		182
2		64		182
2		65		96
2		65		89
2		66		89
2		67		124
2		67		79
2		68		175
2		68		158
2		69		216
2		70		146
2		70		228
2		71		155
2		71		169
2		72		104
2		73		128
2		74		113
2		75		169
2		76		122
2		76		123
2		77		122
2		77		78
2		80		134
2		80		156
2		81		134
2		81		133
2		82		139
2		82		154
2		83		139
2		83		138
2		84		153
2		85		86
2		87		204
2		87		205
2		88		204
2		90		192
2		90		126
2		91		184
2		91		203
2		92		207
2		92		229
2		93		119
2		94		132
2		94		196
2		95		217
2		96		97
2		97		147
2		98		115
2		98		149
2		99		149
2		99		148
2		102		168
2		102		225
2		103		162
2		103		174
2		104		196
2		105		160
2		105		159
2		106		108
2		106		130
2		107		111
2		107		131
2		113		224
2		114		151
2		116		203
2		116		218
2		117		136
2		117		226
2		118		123
2		118		120
2		121		157
2		124		156
2		125		154
2		127		205
2		127		178
2		135		208
2		135		220
2		136		167
2		137		165
2		140		185
2		140		199
2		141		197
2		141		198
2		142		180
2		142		186
2		143		210
2		144		175
2		144		213
2		145		211
2		145		212
2		146		152
2		150		188
2		150		209
2		152		194
2		153		181
2		155		191
2		157		225
2		158		167
2		161		226
2		161		228
2		162		227
2		163		190
2		163		221
2		164		193
2		166		199
2		166		202
2		171		173
2		171		223
2		172		213
2		173		201
2		177		219
2		183		214
2		187		218
2		187		207
2		188		222
2		189		216
2		189		221
2		190		212
2		193		210
2		195		220
2		200		215
2		201		229
POINT_DATA 230
scalars NodeType integer
LOOKUP_TABLE default
7
7
7
7
7
7
7
7
7
7
7
7
7
7
7
7
7
7
7
7
7
7
7
7
7
7
0
0
0
0
0
0
0
0
0
0
0
0
0
0
0
0
0
0
0
0
0
0
0
0
0
0
0
0
0
0
0
0
0
0
0
0
0
0
0
0
0
0
0
0
0
0
0
0
0
0
0
0
0
0
0
0
0
0
0
0
0
0
0
0
0
0
0
0
0
0
0
0
0
0
0
0
0
0
0
0
0
0
0
0
0
0
0
0
0
0
0
0
0
9
9
0
0
0
0
0
0
0
0
9
0
0
0
0
0
0
0
0
0
0
0
0
0
0
0
0
0
0
0
0
0
0
0
0
0
0
0
0
0
0
0
0
0
0
0
0
0
0
0
0
0
0
0
0
0
0
8
0
0
0
0
0
0
0
0
0
0
0
0
0
0
0
0
0
0
0
0
8
0
0
0
0
0
0
0
0
0
0
0
0
0
0
0
0
0
0
0
0
0
0
0
0
0
0
0
0
0
0
0
0
CELL_DATA 218
SCALARS SlipSystem integer
LOOKUP_TABLE default
3
3
3
3
1
1
1
1
2
2
2
2
2
2
2
2
1
1
3
3
2
2
2
2
1
1
3
1
2
13
3
1
3
3
3
2
2
1
3
3
3
3
1
1
3
3
1
1
1
1
1
1
1
1
1
1
1
1
1
1
1
1
1
1
1
1
2
2
2
2
2
2
2
2
1
1
2
2
2
3
1
2
2
2
2
2
2
2
2
2
2
2
2
3
1
2
2
2
2
2
2
2
2
1
1
1
1
1
1
1
1
3
2
1
3
3
3
3
2
2
2
2
2
2
2
2
1
2
2
2
2
1
1
1
1
1
1
13
1
1
3
2
2
2
2
2
2
1
1
1
1
1
1
1
2
2
2
2
2
2
1
1
1
1
3
3
1
2
2
2
2
1
1
1
2
1
1
1
1
1
1
3
1
1
1
1
1
1
1
1
1
1
1
1
1
1
1
1
1
3
1
1
1
1
1
1
1
3
1
1
1
1
1
1
3
1
1
1
