# vtk DataFile Version 1.0
dislocation microstructure
ASCII
DATASET POLYDATA
POINTS 305 float
-1.407136E+02		-2.213016E+02		3.620151E+02
-4.069171E+02		1.959506E+01		3.873221E+02
-2.678171E+02		5.735064E+02		-3.056893E+02
-3.585793E+02		4.159045E+02		-5.732522E+01
2.435975E+02		5.088909E+02		-7.524885E+02
-3.645297E+01		4.790810E+02		-4.426281E+02
1.137360E+01		4.804267E+01		-5.941627E+01
2.977420E+02		-2.208350E+02		-7.690702E+01
-3.705953E+02		-3.364613E+02		7.070566E+02
-2.633774E+02		-5.962946E+01		3.230069E+02
-5.059046E+01		-1.177741E+02		1.683646E+02
-3.709113E+00		-3.770962E+02		3.808053E+02
-5.645235E+02		3.793574E+02		1.851661E+02
-3.703694E+02		9.044315E+01		2.799262E+02
-5.304416E+02		4.354699E+02		9.497178E+01
-5.136564E+02		1.737037E+02		3.399526E+02
-4.002894E+02		6.227393E+02		-2.224499E+02
-1.296146E+02		4.379697E+02		-3.083551E+02
3.132033E+01		-1.863970E+02		1.550767E+02
-2.594066E+02		2.052232E+02		5.418340E+01
5.559540E+02		2.224913E+01		-5.782031E+02
6.021915E+02		-3.324134E+02		-2.697781E+02
-9.943729E+01		-2.899623E+02		3.893996E+02
3.188077E+01		-5.505567E+02		5.186760E+02
-2.457631E+02		2.346175E+02		1.114560E+01
-1.949524E+01		-1.452330E+02		1.647282E+02
-2.072908E+02		-2.177963E+02		4.250870E+02
1.096839E+03		-3.173745E+02		-7.794648E+02
-3.936419E+02		-1.019020E+02		4.955439E+02
-2.738722E+02		6.222177E+02		-3.483454E+02
-3.128833E+02		3.446467E+02		-3.176336E+01
-3.829509E+02		-6.067708E+01		4.436280E+02
1.304736E+01		-4.860602E+02		4.730129E+02
-5.078085E+02		7.249248E+02		-2.171163E+02
-3.453411E+02		3.707379E+02		-2.539683E+01
8.550090E+02		-5.291953E+02		-3.258137E+02
-2.833807E+02		2.883212E+02		-4.940533E+00
-3.562539E+02		-3.621963E+02		7.184502E+02
5.697388E+02		-1.311122E+02		-4.386266E+02
-9.217772E+02		1.342943E+02		7.874828E+02
-4.856904E+02		7.725843E+02		-2.868938E+02
7.981386E+02		2.104730E+00		-8.002433E+02
2.111852E+02		5.281825E+02		-7.393677E+02
-9.471426E+01		7.834486E+02		-6.887344E+02
5.337589E+02		-4.335359E+01		-4.904053E+02
5.325764E+02		2.059529E+01		-5.531717E+02
8.670395E+02		-5.153396E+01		-8.155056E+02
-5.455162E+02		-1.482845E+02		6.938008E+02
-7.526621E+02		-6.383455E+01		8.164967E+02
-3.890997E+02		-4.273969E+02		8.164967E+02
-3.548814E+02		-3.867086E+02		7.415900E+02
-4.767096E+02		2.529339E+02		2.237757E+02
1.062877E+03		-2.964930E+02		-7.663837E+02
3.483552E+02		-3.718623E+02		2.350707E+01
4.168870E+02		-4.168091E+02		-7.794165E-02
4.957821E+01		-5.954896E+02		5.459114E+02
-3.046421E+02		4.395315E+02		-1.348894E+02
6.103597E+02		-3.820919E+02		-2.282678E+02
2.780285E+02		-2.168175E+02		-6.121108E+01
-4.659213E+02		4.344694E+02		3.145189E+01
-5.117764E+02		6.585307E+02		-1.467543E+02
-3.114829E+02		9.114771E+02		-5.999943E+02
8.507659E+01		4.093586E+02		-4.944351E+02
5.817373E+02		2.003141E+02		-7.820514E+02
-4.116344E+02		-1.255338E+02		5.371682E+02
5.776221E+02		1.096891E+02		-6.873112E+02
6.116387E+02		-4.069663E+02		-2.046724E+02
-3.065483E+00		6.937355E+02		-6.906700E+02
1.808360E+02		5.689228E+02		-7.497588E+02
9.717159E+01		-3.089821E+02		2.118105E+02
9.908961E+01		4.218999E+02		-5.209895E+02
4.304856E+02		-9.163673E+02		4.858817E+02
-1.721745E+02		-2.048840E+02		3.770585E+02
6.152418E+02		-2.710673E+02		-3.441745E+02
9.663719E+01		5.368933E+02		-6.335305E+02
-2.919443E+02		-1.176862E+02		4.096305E+02
-3.763581E+01		2.204745E+02		-1.828387E+02
-2.952192E+02		3.376301E+02		-4.241095E+01
6.908253E+02		5.950208E+01		-7.503274E+02
3.161688E+00		-2.014478E+02		1.982861E+02
-2.681219E+02		7.640976E+01		1.917121E+02
3.792763E+02		-3.949107E+02		1.563440E+01
9.504604E+01		-3.405438E+02		2.454977E+02
2.156756E+01		-3.941060E+02		3.725385E+02
1.772802E+01		6.688241E+02		-6.865521E+02
-1.882216E+01		-4.047449E+02		4.235670E+02
8.525540E+01		-3.637495E+02		2.784941E+02
-2.270157E+02		3.643908E+02		-1.373752E+02
7.366382E+02		-4.901409E+02		-2.464974E+02
-5.070866E+02		3.234330E+02		1.836536E+02
3.553136E+01		-5.658672E+02		5.303358E+02
-1.729262E+02		8.416970E+02		-6.687708E+02
1.205689E+02		-2.619143E+02		1.413454E+02
9.574609E+02		-1.409643E+02		-8.164967E+02
4.906764E+01		-3.912533E+02		3.421857E+02
5.838519E+02		1.760972E+02		-7.599491E+02
8.301287E+02		-2.118619E+01		-8.089425E+02
8.878938E+02		-7.139717E+01		-8.164967E+02
-6.834645E+02		-9.910104E+01		7.825655E+02
6.327330E+01		4.085126E+02		-4.717859E+02
1.034158E+03		-2.373588E+02		-7.967996E+02
8.248352E+02		-5.208415E+02		-3.039937E+02
-2.939553E+02		4.730991E+02		-1.791438E+02
-3.361087E+02		7.374973E+01		2.623590E+02
6.627391E+02		6.878695E+01		-7.315261E+02
6.968270E+01		-3.807785E+02		3.110958E+02
-9.264912E+01		-3.448906E+02		4.375397E+02
-3.904415E+02		3.996225E+02		-9.180957E+00
-1.545145E+02		3.372938E+02		-1.827793E+02
6.162933E+02		-3.342791E+02		-2.820142E+02
2.994957E+01		-5.388582E+02		5.089086E+02
-8.920899E+02		8.350526E+01		8.085847E+02
2.492631E+01		-5.168813E+02		4.919550E+02
5.549748E+02		-9.651936E+01		-4.584555E+02
5.429345E+02		-6.777772E+01		-4.751568E+02
1.069073E+02		-1.904087E+02		8.350141E+01
-4.796214E+02		6.793092E+02		-1.996878E+02
-3.281457E+02		7.059875E+02		-3.778417E+02
-2.675658E+01		8.018446E+01		-5.342788E+01
-4.940492E+02		5.614026E+02		-6.735337E+01
-2.754284E+01		2.004414E+02		-1.728986E+02
-3.095414E+02		3.959498E+02		-8.640842E+01
-1.815684E+02		3.503815E+02		-1.688131E+02
5.774246E+02		2.251394E+02		-8.025640E+02
1.068505E+03		-2.566379E+02		-8.118675E+02
4.981695E+02		-4.427997E+02		-5.536980E+01
3.747516E+02		-8.808823E+02		5.061307E+02
-3.665371E+02		-4.114577E+02		7.779948E+02
1.643821E+02		-7.361366E+02		5.717545E+02
3.226798E+00		6.904204E+01		-7.226884E+01
-3.079414E+02		6.834068E+02		-3.754655E+02
6.208567E+02		-3.135694E+02		-3.072872E+02
2.757101E+02		-2.893028E+02		1.359275E+01
6.250283E+02		-4.216769E+02		-2.033515E+02
-1.266417E+02		3.197746E+02		-1.931329E+02
4.590720E+02		-9.391681E+02		4.800961E+02
-5.102747E+02		6.334454E+02		-1.231707E+02
-2.882702E+02		-8.049736E+01		3.687675E+02
-5.037346E+02		9.071200E+02		-4.033855E+02
-5.470979E+01		2.476793E+02		-1.929695E+02
-7.226823E+02		-7.873645E+01		8.014187E+02
-6.446349E+02		-1.168766E+02		7.615115E+02
-2.396759E+02		-1.956595E+02		4.353354E+02
-9.483432E+02		1.895643E+02		7.587789E+02
-9.597943E+02		2.178521E+02		7.419422E+02
-1.212715E+01		-1.728214E+02		1.849486E+02
-2.518114E+01		7.180318E+02		-6.928507E+02
-2.209014E+02		8.705122E+02		-6.496108E+02
7.381046E+01		-1.030622E+02		2.925171E+01
-3.825671E+02		-4.242859E+02		8.068530E+02
-5.214967E+02		8.790666E+02		-3.575699E+02
-1.900220E+02		-2.106506E+02		4.006726E+02
-2.231067E+02		1.382571E+02		8.484963E+01
-4.272250E+02		6.286482E+02		-2.014232E+02
-9.686791E+00		1.314284E+02		-1.217416E+02
-1.893053E+02		-2.561135E+02		4.454187E+02
4.554837E+02		-4.329200E+02		-2.256372E+01
7.111846E+02		-4.781568E+02		-2.330278E+02
5.825813E+02		1.413672E+02		-7.239485E+02
-4.964006E+02		1.809696E+02		3.154310E+02
1.085211E+03		-3.290027E+02		-7.562084E+02
-4.587054E+02		6.537389E+02		-1.950335E+02
5.738173E+02		9.022340E+01		-6.640407E+02
-2.700016E+02		-1.632259E+02		4.332275E+02
8.911275E+01		-2.761457E+02		1.870329E+02
-9.359732E+02		1.623574E+02		7.736158E+02
-3.863932E+02		-8.264099E+01		4.690342E+02
4.672193E+02		-9.469944E+02		4.797751E+02
6.216742E+02		7.696481E+01		-6.986390E+02
-4.184660E+02		4.452065E+02		-2.674049E+01
5.711138E+02		-4.342336E+02		-1.368803E+02
-9.969935E+02		3.658074E+02		6.311862E+02
-4.931451E+02		7.613363E+02		-2.681913E+02
-6.179213E+02		-1.273826E+02		7.453040E+02
-4.750409E+02		2.200169E+02		2.550240E+02
2.598781E+02		-2.544835E+02		-5.394548E+00
7.078609E+01		-6.304989E+02		5.597128E+02
-4.156713E+01		-3.919439E+02		4.335111E+02
1.038163E+02		-6.738173E+02		5.700010E+02
-4.722940E+02		5.135291E+02		-4.123510E+01
-4.480526E+02		9.310182E+02		-4.829655E+02
-2.474489E+02		8.938125E+01		1.580676E+02
-3.500196E+02		7.273359E+02		-3.773162E+02
-9.923840E+02		3.389399E+02		6.534441E+02
9.011693E+01		-1.330356E+02		4.291864E+01
-2.616983E+02		5.074290E+02		-2.457308E+02
-1.010281E+03		4.039329E+02		6.063478E+02
4.009139E+01		6.391467E+02		-6.792381E+02
5.850592E+02		-1.692942E+02		-4.157650E+02
1.072509E+03		-2.560123E+02		-8.164967E+02
-2.280576E+02		5.118311E+02		-2.837734E+02
-1.080931E+02		-3.199245E+02		4.280176E+02
-2.943797E+02		6.986663E+01		2.245130E+02
1.315926E+02		-7.044541E+02		5.728615E+02
-4.377596E+02		-1.425280E+02		5.802877E+02
1.750428E+02		6.414539E+02		-8.164967E+02
-5.912066E+02		-1.364843E+02		7.276909E+02
-5.063430E+02		6.066881E+02		-1.003451E+02
-5.000386E+02		4.413022E+02		5.873644E+01
-2.671498E+02		5.952934E+02		-3.281436E+02
-5.095583E+02		7.626560E+02		-2.530977E+02
2.896573E+01		-2.337925E+02		2.048268E+02
-2.319563E+02		1.090303E+02		1.229261E+02
-1.969084E+01		-1.451301E+02		1.648210E+02
-7.766482E+00		-4.402817E+02		4.480482E+02
5.723595E+02		2.441371E+02		-8.164967E+02
-3.818844E+02		7.495066E+02		-3.676222E+02
-5.033953E+02		7.163514E+02		-2.129561E+02
1.097339E+02		4.377684E+02		-5.475023E+02
3.978496E+01		4.113471E+02		-4.511321E+02
7.146294E+01		-1.863185E+02		1.148556E+02
-2.708424E+02		2.489610E+02		2.188145E+01
7.209506E+01		-2.664363E+02		1.943413E+02
-4.308940E+02		4.206610E+02		1.023306E+01
-8.332424E+01		2.824418E+02		-1.991175E+02
-1.485512E+02		4.684696E+02		-3.199183E+02
-3.511820E+02		9.233313E+02		-5.721493E+02
6.087018E+02		-3.585433E+02		-2.501585E+02
4.323837E+01		-8.160112E+01		3.836275E+01
-2.708497E+02		2.501488E+02		2.070093E+01
-3.845171E+02		4.217665E+02		-3.724938E+01
-5.038994E+02		7.823813E+02		-2.784819E+02
-3.843491E+02		9.298804E+02		-5.455314E+02
8.255202E+01		-1.429160E+02		6.036403E+01
-2.887487E+02		3.123045E+02		-2.355588E+01
-4.480463E+02		4.771191E+02		-2.907283E+01
5.682146E+02		7.145813E+01		-6.396727E+02
1.683508E+02		6.068746E+02		-7.752254E+02
-3.077797E+02		4.189157E+02		-1.111360E+02
7.999039E+01		5.739669E+02		-6.539573E+02
-3.883125E+02		-1.668288E+01		4.049954E+02
-1.499762E+01		-3.910820E+02		4.060796E+02
8.776407E+02		-5.365730E+02		-3.410676E+02
-1.421413E+01		1.625787E+02		-1.483646E+02
1.063263E+02		5.071024E+02		-6.134287E+02
9.574574E+01		-1.581698E+02		6.242407E+01
-7.012181E+01		7.619698E+02		-6.918480E+02
6.091755E+02		-2.444643E+02		-3.647111E+02
4.030759E+02		-8.981060E+02		4.950301E+02
-9.701172E+02		2.469505E+02		7.231668E+02
-1.195302E+02		8.034965E+02		-6.839663E+02
-2.811664E+02		4.924756E+02		-2.113092E+02
5.516976E+02		3.806743E+01		-5.897650E+02
-4.833634E+02		1.948209E+02		2.885425E+02
-4.475449E+02		7.717101E+02		-3.241652E+02
-4.967024E+02		7.331435E+02		-2.364411E+02
-5.246995E+02		8.412160E+02		-3.165165E+02
-5.189545E+02		8.136592E+02		-2.947047E+02
7.616986E+02		-5.004840E+02		-2.612145E+02
5.381574E+02		-4.429466E+02		-9.521075E+01
5.844460E+02		7.705545E+01		-6.615014E+02
1.044807E+03		-2.507518E+02		-7.940556E+02
-1.515844E+02		-2.961695E+02		4.477539E+02
-8.750283E+02		5.853164E+01		8.164967E+02
-1.456252E+02		8.229602E+02		-6.773350E+02
2.957058E+02		-3.182999E+02		2.259413E+01
7.549681E+02		2.920043E+01		-7.841685E+02
-4.935795E+02		3.003329E+02		1.932467E+02
-9.075846E+02		1.088647E+02		7.987199E+02
1.214708E+02		-2.276322E+02		1.061614E+02
1.970209E+02		-7.641174E+02		5.670965E+02
3.273347E+02		-8.532592E+02		5.259245E+02
-2.491942E+02		3.651789E+02		-1.159847E+02
-4.727716E+01		7.404306E+02		-6.931534E+02
-5.091680E+02		-1.529454E+02		6.621134E+02
-4.789908E+02		9.228338E+02		-4.438431E+02
-7.073456E+01		-3.693470E+02		4.400816E+02
-2.713064E+02		8.955009E+02		-6.241944E+02
-2.379438E+02		2.127585E+02		2.518522E+01
-2.229159E+02		1.599127E+02		6.300316E+01
5.254359E+02		6.652618E+00		-5.320885E+02
6.693512E+02		-4.542395E+02		-2.151117E+02
-2.972333E+02		3.574864E+02		-6.025311E+01
1.010479E+03		-2.062674E+02		-8.042118E+02
-2.688926E+02		3.622494E+02		-9.335672E+01
-4.731986E+02		-1.519591E+02		6.251577E+02
3.028611E+02		-8.382370E+02		5.353759E+02
7.186412E+02		4.786536E+01		-7.665065E+02
1.080473E+03		-2.854868E+02		-7.949860E+02
-2.461464E+02		8.834789E+02		-6.373325E+02
9.235603E+01		-1.694551E+02		7.709908E+01
5.537726E+02		5.185377E+01		-6.056264E+02
6.011646E+01		6.090387E+02		-6.691552E+02
-2.869049E+02		6.512408E+02		-3.643359E+02
-2.265166E+02		1.837368E+02		4.277977E+01
-1.002431E+03		3.886706E+02		6.137603E+02
2.783608E+02		-8.228780E+02		5.445172E+02
7.952952E+02		-5.121278E+02		-2.831673E+02
5.269126E+02		-1.962284E+01		-5.072898E+02
-5.104224E+02		6.912413E+02		-1.808188E+02
-9.832825E+02		2.933226E+02		6.899600E+02
6.015996E+02		-2.172881E+02		-3.843115E+02
6.419793E+01		-1.086262E+02		4.442830E+01
-4.165911E+02		9.327010E+02		-5.161099E+02
2.376619E+02		-7.951110E+02		5.574491E+02
-1.889174E+02		4.988472E+02		-3.099299E+02
-5.326613E+02		3.549445E+02		1.777168E+02
1.121289E+02		4.765561E+02		-5.886850E+02
-4.225356E+02		7.665398E+02		-3.440042E+02
-5.807964E+00		4.380049E+02		-4.321970E+02
5.983669E+02		-4.203882E+02		-1.779787E+02
3.191187E+02		-3.449546E+02		2.583587E+01
2.602420E+02		-2.198998E+02		-4.034216E+01
9.920329E+02		-1.825011E+02		-8.095318E+02
-1.175290E+01		1.054052E+02		-9.365235E+01
LINES 296 888
2		0		72
2		1		230
2		2		199
2		3		220
2		4		42
2		5		299
2		6		129
2		7		58
2		8		37
2		9		137
2		10		203
2		11		231
2		12		296
2		13		103
2		14		198
2		15		159
2		16		153
2		17		215
2		18		210
2		19		211
2		20		281
2		21		217
2		22		191
2		23		90
2		24		219
2		25		203
2		26		142
2		26		155
2		26		151
2		27		278
2		28		64
2		28		166
2		29		199
2		29		283
2		30		34
2		30		224
2		31		230
2		31		166
2		32		204
2		32		112
2		33		207
2		33		200
2		34		107
2		35		101
2		35		232
2		36		224
2		36		219
2		37		50
2		38		188
2		38		113
2		39		165
2		39		258
2		40		221
2		40		172
2		40		244
2		41		256
2		41		96
2		42		68
2		43		240
2		43		236
2		44		288
2		44		114
2		45		270
2		45		242
2		46		96
2		46		97
2		47		196
2		47		264
2		48		140
2		49		149
2		50		127
2		51		257
2		51		174
2		52		251
2		52		160
2		53		301
2		53		81
2		54		156
2		54		81
2		55		90
2		55		176
2		56		102
2		56		228
2		57		217
2		57		66
2		58		302
2		59		213
2		59		198
2		60		289
2		60		136
2		61		267
2		61		216
2		62		70
2		62		99
2		63		123
2		63		95
2		64		194
2		65		158
2		65		162
2		66		300
2		66		133
2		67		146
2		67		84
2		68		227
2		69		212
2		69		82
2		70		208
2		71		135
2		71		238
2		72		151
2		73		131
2		73		237
2		74		229
2		74		234
2		75		163
2		75		137
2		76		120
2		76		139
2		77		224
2		77		272
2		78		277
2		78		104
2		79		201
2		79		145
2		80		192
2		80		181
2		82		86
2		83		231
2		83		94
2		84		187
2		85		231
2		85		204
2		86		105
2		87		122
2		87		262
2		88		248
2		88		157
2		89		257
2		89		296
2		90		110
2		91		147
2		91		254
2		92		164
2		92		259
2		93		303
2		94		105
2		95		158
2		98		140
2		98		141
2		99		209
2		100		251
2		100		124
2		100		189
2		100		273
2		101		287
2		102		241
2		103		192
2		104		168
2		106		191
2		106		266
2		107		213
2		108		134
2		108		122
2		109		131
2		109		217
2		110		112
2		111		258
2		111		253
2		113		114
2		115		259
2		115		280
2		116		207
2		116		161
2		117		182
2		117		130
2		118		304
2		119		197
2		119		179
2		120		233
2		121		272
2		121		228
2		123		205
2		124		278
2		125		249
2		125		156
2		126		238
2		126		261
2		127		149
2		128		260
2		128		193
2		130		283
2		132		175
2		132		255
2		133		271
2		134		214
2		135		167
2		136		197
2		138		265
2		138		150
2		139		214
2		141		173
2		142		163
2		143		165
2		143		144
2		144		239
2		145		203
2		146		263
2		147		279
2		148		218
2		148		184
2		150		246
2		152		269
2		152		202
2		153		161
2		154		304
2		154		233
2		155		252
2		157		271
2		159		243
2		162		226
2		164		212
2		168		250
2		169		220
2		169		225
2		170		300
2		170		249
2		171		285
2		171		183
2		172		245
2		173		196
2		174		243
2		175		302
2		176		178
2		177		266
2		177		231
2		178		193
2		179		225
2		180		293
2		180		265
2		181		202
2		182		206
2		183		290
2		184		235
2		185		241
2		185		190
2		186		285
2		187		282
2		188		291
2		190		295
2		191		252
2		194		275
2		195		227
2		200		221
2		201		212
2		206		298
2		207		245
2		207		289
2		208		297
2		209		299
2		210		280
2		211		268
2		211		219
2		215		295
2		216		222
2		218		292
2		221		247
2		222		293
2		223		292
2		223		280
2		226		281
2		226		250
2		229		282
2		234		297
2		235		280
2		236		263
2		237		291
2		239		290
2		240		254
2		242		281
2		244		298
2		246		247
2		248		287
2		255		301
2		256		277
2		260		294
2		261		276
2		262		274
2		264		275
2		267		279
2		268		284
2		269		284
2		270		288
2		272		274
2		273		303
2		276		286
2		286		294
POINT_DATA 305
scalars NodeType integer
LOOKUP_TABLE default
7
7
7
7
7
7
7
7
7
7
7
7
7
7
7
7
7
7
7
7
7
7
7
7
7
7
0
8
0
0
0
0
0
0
0
0
0
0
0
0
0
0
0
0
0
0
0
0
8
8
0
0
0
0
0
0
0
0
0
0
0
0
0
0
0
0
0
0
0
0
0
0
0
0
0
0
0
0
0
0
0
0
0
0
0
0
0
0
0
0
0
0
0
8
0
0
0
8
0
0
0
0
0
0
0
0
0
0
0
0
0
0
0
0
0
0
0
0
9
0
0
0
0
0
0
0
0
0
0
9
0
0
0
0
0
0
0
0
0
0
0
0
0
0
0
0
0
0
0
0
0
0
0
0
0
0
0
0
0
0
8
0
0
0
0
0
0
8
0
0
0
0
0
0
0
0
0
0
0
0
0
0
0
0
0
0
8
0
0
8
0
0
0
0
0
8
0
0
0
0
0
0
0
0
0
8
0
0
0
0
0
0
0
0
0
0
0
0
9
0
0
0
0
0
0
0
0
0
0
0
0
0
8
0
0
0
0
0
0
0
0
0
0
0
0
0
0
0
0
0
0
0
0
8
0
0
0
0
0
0
0
0
0
0
0
0
0
0
0
0
0
0
0
0
0
0
0
0
0
0
0
0
0
0
0
0
0
0
0
0
0
0
0
0
0
0
0
0
0
0
0
0
0
0
0
CELL_DATA 296
SCALARS SlipSystem integer
LOOKUP_TABLE default
3
3
3
3
1
1
1
1
2
2
2
2
2
2
2
2
1
1
3
3
2
2
2
2
1
1
2
1
3
2
3
3
3
3
2
2
3
3
3
3
3
3
2
2
2
3
3
2
1
1
1
1
2
1
3
2
2
1
1
1
1
1
1
1
2
2
3
3
3
2
2
2
2
1
1
1
1
1
1
1
1
1
1
3
3
1
2
2
3
3
1
1
1
1
1
1
3
1
1
1
2
1
1
1
2
2
1
1
1
3
1
1
1
1
2
2
3
3
13
13
2
2
3
3
2
2
2
2
2
1
3
3
2
3
3
2
2
2
2
3
1
1
1
1
2
2
1
3
3
1
1
2
1
2
2
1
2
2
3
3
2
3
3
1
1
3
1
1
1
1
1
1
1
3
3
3
3
3
3
1
1
1
2
1
1
1
1
2
1
1
3
1
1
2
3
1
3
1
1
3
3
2
1
1
1
3
1
1
3
3
1
2
2
1
3
3
1
2
2
1
1
2
3
3
1
1
1
1
1
3
2
1
1
3
3
1
3
1
1
2
3
1
3
1
1
1
1
1
1
1
3
1
3
3
3
1
3
1
1
3
2
13
1
1
1
1
1
1
1
3
2
1
1
3
1
1
1
1
1
3
1
2
1
2
1
1
3
3
1
2
2
1
3
2
1
1
