# vtk DataFile Version 1.0
dislocation microstructure
ASCII
DATASET POLYDATA
POINTS 265 float
-1.407136E+02		-2.213016E+02		3.620151E+02
-4.069171E+02		1.959506E+01		3.873221E+02
-2.678171E+02		5.735064E+02		-3.056893E+02
-3.585793E+02		4.159045E+02		-5.732522E+01
2.435975E+02		5.088909E+02		-7.524885E+02
-3.645297E+01		4.790810E+02		-4.426281E+02
1.137360E+01		4.804267E+01		-5.941627E+01
2.977420E+02		-2.208350E+02		-7.690702E+01
-3.705953E+02		-3.364613E+02		7.070566E+02
-2.633774E+02		-5.962946E+01		3.230069E+02
-5.059046E+01		-1.177741E+02		1.683646E+02
-3.709113E+00		-3.770962E+02		3.808053E+02
-5.645235E+02		3.793574E+02		1.851661E+02
-3.703694E+02		9.044315E+01		2.799262E+02
-5.304416E+02		4.354699E+02		9.497178E+01
-5.136564E+02		1.737037E+02		3.399526E+02
-4.002894E+02		6.227393E+02		-2.224499E+02
-1.296146E+02		4.379697E+02		-3.083551E+02
3.132033E+01		-1.863970E+02		1.550767E+02
-2.594066E+02		2.052232E+02		5.418340E+01
5.559540E+02		2.224913E+01		-5.782031E+02
6.021915E+02		-3.324134E+02		-2.697781E+02
-9.943729E+01		-2.899623E+02		3.893996E+02
3.188077E+01		-5.505567E+02		5.186760E+02
-2.457631E+02		2.346175E+02		1.114560E+01
-1.949524E+01		-1.452330E+02		1.647282E+02
-1.040438E+02		-1.293808E+02		2.334246E+02
5.690151E+02		7.494118E+01		-6.439563E+02
-1.030264E+02		-1.473675E+02		2.503939E+02
-1.139811E+02		-2.038937E+02		3.178748E+02
-2.157306E+02		1.333066E+02		8.242393E+01
-4.504146E+02		1.371944E+01		4.366952E+02
1.383157E+02		-3.404070E+02		2.020913E+02
-3.691978E+02		6.284490E+02		-2.592512E+02
-3.287871E+02		2.260017E+02		1.027854E+02
-4.364701E+02		5.008174E+02		-6.434733E+01
-3.062870E+02		2.043638E+02		1.019232E+02
7.395090E+02		-6.182044E+01		-6.776885E+02
5.521083E+02		5.387037E+01		-6.059787E+02
5.224181E+02		-4.030147E+00		-5.183879E+02
6.269823E+02		-3.794598E+02		-2.475225E+02
5.358335E+02		-4.263551E+01		-4.931980E+02
-8.502874E+01		-9.504010E+01		1.800688E+02
6.065597E+02		-2.105481E+02		-3.960115E+02
1.993480E+02		-1.580186E+02		-4.132934E+01
5.500685E+02		-7.420285E+01		-4.758657E+02
6.232002E+02		-3.360931E+02		-2.871071E+02
-5.438892E+02		-4.479424E+01		5.886835E+02
-5.454220E+02		-1.651209E+02		7.105429E+02
-4.768733E+02		-2.845130E+02		7.613863E+02
-4.105555E+02		-3.275185E+02		7.380740E+02
-4.915975E+02		2.399715E+01		4.676004E+02
5.932715E+02		-1.726292E+02		-4.206423E+02
5.720097E+02		-1.213403E+02		-4.506694E+02
-3.059003E+02		9.243333E+02		-6.184330E+02
-5.057302E+02		-2.525837E+02		7.583140E+02
8.050274E+02		-2.890712E+02		-5.159562E+02
1.961587E+02		-4.282129E+02		2.320542E+02
1.865964E+02		-4.883888E+02		3.017923E+02
-5.305669E+02		3.677981E+02		1.627688E+02
-3.643869E+02		5.442149E+02		-1.798280E+02
-2.854511E+02		1.848781E+02		1.005729E+02
-3.389305E+02		1.553398E+02		1.835906E+02
-5.073075E+02		5.661960E+02		-5.888852E+01
-4.958679E+02		4.562212E+02		3.964676E+01
-4.007436E+02		1.888927E+02		2.118509E+02
-4.477297E+02		4.485232E+02		-7.935186E-01
8.088369E+02		-2.252475E+02		-5.835894E+02
-2.742912E+02		9.063189E+02		-6.320277E+02
-4.199110E+02		3.793328E+02		4.057820E+01
1.748362E+01		6.444606E+02		-6.619442E+02
3.880231E+02		-4.146513E+02		2.662820E+01
-1.761160E+02		-1.141665E+02		2.902825E+02
-2.913825E+02		6.080947E+02		-3.167122E+02
1.945132E+02		-3.989972E+02		2.044840E+02
6.089567E+02		-4.174587E+02		-1.914981E+02
-1.046900E+02		1.886382E+02		-8.394827E+01
-2.013918E+02		2.377318E+02		-3.633999E+01
-2.423507E+02		2.225826E+02		1.976815E+01
8.094524E+02		-2.582740E+02		-5.511783E+02
7.639759E+02		-9.565167E+01		-6.683242E+02
6.385501E+02		1.801437E+01		-6.565645E+02
7.529962E+02		-3.633698E+02		-3.896265E+02
6.782521E+02		-3.769774E+02		-3.012747E+02
-1.854076E+02		5.033904E+02		-3.179828E+02
-2.000183E+01		-3.401819E+02		3.601837E+02
-6.018982E+01		-3.066884E+02		3.668782E+02
1.316969E+02		-5.561332E+02		4.244363E+02
7.488026E+01		-5.647552E+02		4.898749E+02
-4.619990E+02		2.110383E+02		2.509607E+02
2.240648E+02		-3.601943E+02		1.361295E+02
-2.220332E+02		5.227484E+02		-3.007152E+02
6.568235E+01		5.621285E+02		-6.278109E+02
4.373401E+01		-8.157883E+01		3.784482E+01
-1.677648E+00		4.421147E+02		-4.404371E+02
8.891188E+01		4.826890E+02		-5.716009E+02
-4.292088E+02		2.513547E+02		1.778541E+02
-4.495297E+02		2.981976E+02		1.513321E+02
-3.540582E+02		2.587352E+02		9.532296E+01
-4.068106E+02		3.509599E+02		5.585072E+01
-4.840699E+02		2.011783E+02		2.828916E+02
-4.403380E+02		5.228673E+02		-8.252930E+01
-4.038594E+02		5.265637E+02		-1.227044E+02
-3.585485E+02		1.035292E+02		2.550193E+02
-1.454554E+02		5.094281E+01		9.451259E+01
1.021824E+02		-6.528763E+01		-3.689479E+01
-5.517252E+02		-9.496372E+01		6.466889E+02
-5.256964E+02		-4.732417E+00		5.304288E+02
-5.512868E+02		-1.262060E+02		6.774928E+02
-5.281827E+02		-2.152324E+02		7.434151E+02
1.904100E+02		-3.661547E+02		1.757448E+02
-5.114085E+02		1.168181E+01		4.997267E+02
1.713022E+02		-3.581287E+02		1.868266E+02
8.415106E+01		5.063980E+02		-5.905491E+02
-5.608044E+02		6.164235E+02		-5.561915E+01
-4.479163E+02		4.750352E+02		-2.711895E+01
-2.966391E+02		5.415348E+02		-2.448957E+02
-1.093505E+02		7.850846E+02		-6.757341E+02
-5.306216E+01		1.163223E+02		-6.326016E+01
-4.121899E+02		5.325621E+02		-1.203722E+02
-4.356503E+01		8.158691E+01		-3.802188E+01
1.778896E+02		-1.326351E+02		-4.525449E+01
-1.500971E+02		2.221321E+02		-7.203499E+01
-7.248840E+01		1.509229E+02		-7.843452E+01
8.029071E+02		-1.887308E+02		-6.141762E+02
7.949521E+02		-3.175715E+02		-4.773807E+02
3.390647E+02		-3.803810E+02		4.131635E+01
1.677220E+02		-5.259045E+02		3.581825E+02
-3.324489E+02		6.338156E+02		-3.013667E+02
3.736640E+00		6.876827E+01		-7.250491E+01
-5.490459E+02		-6.833533E+01		6.173813E+02
-5.362428E+02		-2.365629E+01		5.598991E+02
-3.702914E+02		9.575875E+02		-5.872961E+02
5.835445E+02		3.281605E+01		-6.163606E+02
7.114401E+02		-3.212451E+01		-6.793155E+02
4.199655E+02		-4.318074E+02		1.184185E+01
-1.471245E+02		8.174713E+02		-6.703468E+02
-2.381636E+02		-8.390815E+01		3.220717E+02
6.322957E+02		-3.627815E+02		-2.695142E+02
7.191341E+02		-3.757691E+02		-3.433650E+02
6.025181E+02		1.705704E+02		-7.730886E+02
1.522376E+02		6.642590E+02		-8.164967E+02
5.208710E+01		-2.821642E+02		2.300771E+02
2.142540E+01		-2.499132E+02		2.284878E+02
-4.016655E+02		9.745705E+02		-5.729051E+02
-4.749029E+02		5.414292E+02		-6.652627E+01
5.018683E+01		5.926092E+02		-6.427961E+02
-4.937897E+02		3.444747E+02		1.493150E+02
5.448034E+01		-1.190408E+02		6.456046E+01
-4.436200E+02		-3.102546E+02		7.538746E+02
-1.764032E+02		9.114895E+01		8.525425E+01
-1.479497E+02		4.713456E+02		-3.233959E+02
7.830156E+01		5.302748E+02		-6.085764E+02
2.696051E+02		-3.157454E+02		4.614020E+01
7.779460E+02		-3.431022E+02		-4.348438E+02
2.927374E+02		-3.385511E+02		4.581368E+01
7.893727E+02		-1.458421E+02		-6.435306E+02
-5.187145E+02		4.495142E+02		6.920029E+01
-2.255604E+02		8.756072E+02		-6.500468E+02
4.831604E+02		-4.535236E+02		-2.963679E+01
5.258469E+02		-1.666742E+01		-5.091795E+02
-4.441553E+01		7.208619E+02		-6.764464E+02
5.211768E+02		2.097690E+01		-5.421537E+02
-6.540221E+02		7.277201E+02		-7.369799E+01
-2.318929E+01		-1.418831E+02		1.650724E+02
-2.058350E+02		-1.023783E+02		3.082133E+02
-2.263119E+02		2.344390E+02		-8.127110E+00
-1.851948E+02		8.471214E+02		-6.619267E+02
-1.494167E+02		-1.218579E+02		2.712747E+02
5.142926E+02		-4.575273E+02		-5.676526E+01
1.935216E+02		-4.593189E+02		2.657973E+02
3.470576E+01		6.185715E+02		-6.532772E+02
-6.220089E+02		6.882187E+02		-6.620973E+01
2.496655E+02		-3.325949E+02		8.292936E+01
-3.362011E+02		9.403776E+02		-6.041765E+02
1.298331E+02		-8.624150E+01		-4.359158E+01
6.169807E+02		-2.483227E+02		-3.686580E+02
1.792943E+02		-5.064301E+02		3.271358E+02
-1.046895E+02		-1.763784E+02		2.810679E+02
-4.705088E+02		3.233986E+02		1.471101E+02
-4.150913E+02		5.124239E+02		-9.733266E+01
-4.553125E+02		4.514453E+02		3.867285E+00
4.401910E+01		-1.736371E+02		1.296180E+02
-3.625288E+02		1.486971E+02		2.138317E+02
5.837799E+02		1.000244E+02		-6.838044E+02
6.256431E+02		-3.153792E+02		-3.102640E+02
-3.901485E+02		5.385022E+02		-1.483538E+02
-1.186962E+02		8.290603E+00		1.104056E+02
-6.697873E+02		7.444264E+02		-7.463918E+01
-5.857460E+02		6.438164E+02		-5.807044E+01
2.439247E+02		-2.045615E+02		-3.936317E+01
6.037370E+02		2.029070E+02		-8.066441E+02
-2.081127E+01		-1.715707E+02		1.923820E+02
6.982119E+01		4.280374E+02		-4.978586E+02
-3.511265E+02		1.282046E+02		2.229219E+02
8.073169E+01		-5.093920E+01		-2.979248E+01
-4.783107E+02		2.541776E+01		4.528930E+02
1.693393E+02		5.639029E+02		-7.332421E+02
-5.100284E+02		6.189048E+01		4.481379E+02
2.579487E+02		-3.061146E+02		4.816590E+01
-3.819264E+02		3.030313E+02		7.889512E+01
6.057853E+02		2.107113E+02		-8.164967E+02
-2.508840E+02		5.328137E+02		-2.819297E+02
1.062249E+02		-5.640634E+02		4.578386E+02
1.520117E+02		-5.429309E+02		3.909192E+02
-4.219843E+02		4.796524E+02		-5.766814E+01
1.132063E+02		-3.263363E+02		2.131299E+02
-5.287792E+02		9.364279E+01		4.351364E+02
2.092829E+02		5.213129E+02		-7.305957E+02
-6.458963E+00		-2.080298E+02		2.144887E+02
-3.799182E+02		6.096843E+02		-2.297661E+02
-5.354414E+02		5.911667E+02		-5.572535E+01
-4.235524E+02		9.906613E+02		-5.671088E+02
5.128751E+01		-1.576479E+02		1.063604E+02
2.198901E+02		-1.834106E+02		-3.647954E+01
-3.194183E+02		1.650080E+02		1.544103E+02
-1.040427E+02		-2.112321E+01		1.251660E+02
-3.388554E+02		5.447862E+02		-2.059308E+02
6.247056E+02		-2.919586E+02		-3.327470E+02
6.106694E+02		2.838481E+01		-6.390542E+02
-9.251633E+01		-5.137362E+01		1.438900E+02
-2.412444E+02		2.082508E+02		3.299356E+01
-3.811424E+02		4.357010E+02		-5.455857E+01
-4.348189E+02		2.153855E+02		2.194334E+02
-7.621168E+01		7.538359E+02		-6.776242E+02
5.325887E+02		3.519416E+01		-5.677828E+02
-1.332825E+01		6.850057E+02		-6.716775E+02
-5.130583E+02		1.830891E+02		3.299692E+02
5.704767E+02		-4.482707E+02		-1.222060E+02
5.960821E+02		1.326760E+02		-7.287582E+02
4.504350E+02		-4.443567E+02		-6.078259E+00
6.751714E+02		-2.959683E+00		-6.722117E+02
-4.243745E+02		1.189891E+01		4.124756E+02
8.475223E+01		-3.080729E+02		2.233207E+02
-4.294609E+02		2.223449E+02		2.071161E+02
-3.854513E+02		5.591184E+02		-1.736670E+02
-5.427826E+02		1.687906E+02		3.739920E+02
5.465698E+01		-1.399016E+02		8.524466E+01
1.476322E+02		6.114024E+02		-7.590346E+02
5.440507E+02		-4.559113E+02		-8.813941E+01
3.633138E+02		-3.981848E+02		3.487106E+01
-5.424913E+02		1.308412E+02		4.116501E+02
5.917023E+02		-4.354613E+02		-1.562410E+02
3.671896E+01		4.247594E+02		-4.614784E+02
8.644420E+01		4.509768E+02		-5.374210E+02
-5.048570E+02		1.828517E+02		3.220053E+02
-4.309086E+02		4.049477E+02		2.596090E+01
-3.773732E+02		5.785396E+02		-2.011665E+02
-1.770690E+02		2.330506E+02		-5.598157E+01
-2.499175E+02		8.911134E+02		-6.411959E+02
6.210441E+02		-3.480611E+02		-2.729830E+02
2.703161E+02		-2.055748E+02		-6.474127E+01
-3.007572E+02		1.714713E+02		1.292859E+02
5.830106E+02		-1.469942E+02		-4.360164E+02
-3.968692E+02		5.442863E+02		-1.474170E+02
1.547926E+02		-1.086072E+02		-4.618544E+01
1.448612E+02		6.398778E+02		-7.847389E+02
6.188217E+02		-4.005231E+02		-2.182986E+02
-5.378696E+02		-1.898890E+02		7.277586E+02
-9.123909E+01		-1.150528E+02		2.062919E+02
-2.449149E+02		1.887384E+02		5.617653E+01
-2.450464E+02		1.630278E+02		8.201861E+01
7.772534E+02		-1.207314E+02		-6.565220E+02
2.376553E+02		-3.470646E+02		1.094094E+02
3.155548E+02		-3.600079E+02		4.445308E+01
LINES 256 768
2		0		29
2		1		232
2		2		73
2		3		222
2		4		208
2		5		94
2		6		129
2		7		251
2		8		50
2		9		137
2		10		164
2		11		85
2		12		59
2		13		103
2		14		157
2		15		245
2		16		210
2		17		151
2		18		182
2		19		221
2		20		133
2		21		250
2		22		86
2		23		88
2		24		221
2		25		164
2		26		28
2		26		168
2		26		259
2		27		184
2		27		38
2		28		178
2		29		178
2		30		150
2		30		261
2		31		232
2		31		196
2		32		206
2		32		112
2		33		128
2		33		210
2		34		98
2		34		36
2		35		101
2		35		205
2		36		61
2		37		134
2		37		80
2		38		225
2		39		160
2		39		162
2		40		250
2		40		257
2		41		160
2		41		45
2		42		220
2		42		259
2		43		176
2		43		52
2		44		214
2		44		121
2		45		53
2		46		250
2		46		185
2		47		130
2		47		131
2		48		108
2		48		258
2		49		149
2		49		55
2		50		149
2		51		196
2		51		111
2		52		253
2		53		253
2		54		174
2		54		68
2		55		109
2		56		125
2		56		79
2		57		170
2		57		74
2		58		170
2		58		177
2		59		147
2		60		217
2		60		186
2		61		252
2		62		215
2		62		183
2		63		211
2		63		145
2		64		181
2		64		157
2		65		223
2		65		183
2		66		115
2		66		181
2		66		246
2		67		124
2		67		79
2		68		249
2		69		99
2		69		246
2		70		226
2		70		171
2		71		135
2		71		240
2		72		165
2		72		168
2		73		128
2		74		110
2		75		257
2		75		242
2		76		122
2		76		123
2		77		166
2		77		248
2		78		166
2		78		221
2		80		262
2		81		231
2		81		219
2		82		139
2		82		154
2		83		139
2		83		138
2		84		151
2		84		91
2		85		86
2		87		203
2		87		204
2		88		203
2		89		223
2		89		100
2		90		110
2		90		263
2		91		202
2		92		152
2		92		146
2		93		148
2		94		243
2		95		244
2		95		113
2		96		234
2		96		97
2		97		179
2		98		200
2		99		200
2		100		245
2		101		119
2		101		145
2		102		186
2		102		180
2		103		194
2		104		187
2		104		150
2		105		175
2		105		195
2		106		108
2		106		130
2		107		111
2		107		131
2		109		258
2		110		112
2		113		152
2		114		211
2		114		189
2		115		205
2		116		202
2		116		217
2		117		136
2		117		224
2		118		123
2		118		120
2		119		254
2		121		255
2		122		248
2		124		156
2		125		154
2		126		240
2		126		264
2		127		204
2		127		177
2		132		174
2		132		144
2		133		219
2		134		231
2		135		230
2		136		167
2		137		165
2		138		250
2		140		229
2		140		191
2		141		256
2		142		233
2		142		143
2		143		209
2		144		212
2		146		171
2		147		179
2		148		237
2		153		199
2		153		155
2		155		264
2		156		262
2		158		167
2		158		249
2		159		230
2		159		169
2		161		224
2		161		226
2		162		225
2		163		172
2		163		188
2		164		192
2		169		239
2		172		189
2		173		199
2		173		263
2		175		255
2		176		218
2		180		205
2		182		213
2		183		194
2		184		229
2		185		218
2		187		216
2		190		251
2		190		214
2		191		201
2		192		209
2		193		243
2		193		244
2		196		198
2		197		238
2		197		208
2		198		207
2		205		222
2		206		233
2		207		241
2		210		247
2		213		237
2		215		252
2		216		220
2		221		260
2		223		234
2		227		236
2		227		245
2		228		239
2		228		242
2		235		247
2		235		254
2		236		241
2		238		256
2		260		261
POINT_DATA 265
scalars NodeType integer
LOOKUP_TABLE default
7
7
7
7
7
7
7
7
7
7
7
7
7
7
7
7
7
7
7
7
7
7
7
7
7
7
0
0
0
0
0
0
0
0
0
0
0
0
0
0
0
0
0
0
0
0
0
0
0
0
0
0
0
0
0
0
0
0
0
0
0
0
0
0
0
0
0
0
0
0
0
0
0
0
0
0
0
0
0
0
0
0
0
0
0
0
0
0
0
0
0
0
0
9
0
0
0
0
0
0
0
0
0
0
0
0
0
0
0
0
0
0
0
0
0
0
0
0
0
0
9
0
0
0
0
0
0
0
0
9
0
0
0
0
0
0
0
0
0
0
0
8
0
0
0
0
0
0
0
0
0
0
0
0
0
0
0
0
0
0
0
0
0
0
0
0
0
0
0
0
0
0
0
0
0
0
0
0
0
0
0
0
0
0
0
0
0
0
8
0
0
0
0
0
0
9
0
0
0
0
0
8
0
0
0
0
0
0
0
0
0
0
8
0
0
0
0
0
0
0
0
0
0
0
0
0
0
0
0
0
0
0
0
0
0
0
0
0
0
0
0
0
0
0
0
0
0
0
0
0
0
0
0
0
0
0
0
0
0
0
0
0
0
0
0
CELL_DATA 256
SCALARS SlipSystem integer
LOOKUP_TABLE default
3
3
3
3
1
1
1
1
2
2
2
2
2
2
2
2
1
1
3
3
2
2
2
2
1
1
3
2
1
1
1
3
3
1
1
3
3
3
3
3
3
3
3
3
3
3
2
2
1
1
1
1
1
1
1
1
1
1
1
1
1
1
1
1
2
2
2
2
2
2
2
2
2
1
1
1
1
2
2
2
2
2
2
2
2
1
1
3
3
3
1
1
2
2
1
1
1
2
3
2
2
1
3
3
1
1
1
1
2
2
3
2
1
1
3
3
3
3
3
3
2
2
2
2
2
2
2
1
1
2
2
2
2
3
3
1
1
1
1
1
3
1
1
1
2
2
2
3
3
3
2
1
1
1
2
1
1
1
1
2
2
2
2
2
3
1
1
1
1
1
1
1
1
3
3
2
1
3
2
2
1
1
2
2
1
1
2
2
1
1
2
2
1
1
1
3
3
3
1
1
2
3
1
1
1
2
1
1
1
1
1
1
1
1
1
3
1
1
1
1
1
1
1
3
2
1
1
1
1
1
1
3
1
1
1
1
1
1
3
3
1
2
3
3
1
1
2
1
1
1
1
2
2
1
1
1
