# vtk DataFile Version 1.0
dislocation microstructure
ASCII
DATASET POLYDATA
POINTS 254 float
-1.407136E+02		-2.213016E+02		3.620151E+02
-4.069171E+02		1.959506E+01		3.873221E+02
-2.678171E+02		5.735064E+02		-3.056893E+02
-3.585793E+02		4.159045E+02		-5.732522E+01
2.435975E+02		5.088909E+02		-7.524885E+02
-3.645297E+01		4.790810E+02		-4.426281E+02
1.137360E+01		4.804267E+01		-5.941627E+01
2.977420E+02		-2.208350E+02		-7.690702E+01
-3.705953E+02		-3.364613E+02		7.070566E+02
-2.633774E+02		-5.962946E+01		3.230069E+02
-5.059046E+01		-1.177741E+02		1.683646E+02
-3.709113E+00		-3.770962E+02		3.808053E+02
-5.645235E+02		3.793574E+02		1.851661E+02
-3.703694E+02		9.044315E+01		2.799262E+02
-5.304416E+02		4.354699E+02		9.497178E+01
-5.136564E+02		1.737037E+02		3.399526E+02
-4.002894E+02		6.227393E+02		-2.224499E+02
-1.296146E+02		4.379697E+02		-3.083551E+02
3.132033E+01		-1.863970E+02		1.550767E+02
-2.594066E+02		2.052232E+02		5.418340E+01
5.559540E+02		2.224913E+01		-5.782031E+02
6.021915E+02		-3.324134E+02		-2.697781E+02
-9.943729E+01		-2.899623E+02		3.893996E+02
3.188077E+01		-5.505567E+02		5.186760E+02
-2.457631E+02		2.346175E+02		1.114560E+01
-1.949524E+01		-1.452330E+02		1.647282E+02
-1.142777E+02		-1.174475E+02		2.317253E+02
5.420209E+02		9.924687E+01		-6.412677E+02
-1.113915E+02		-1.432728E+02		2.546643E+02
-1.173698E+02		-2.005712E+02		3.179409E+02
-2.256389E+02		1.204898E+02		1.051491E+02
-4.518648E+02		1.998303E+01		4.318818E+02
-4.411512E+02		5.459784E+02		-1.048272E+02
-3.694927E+02		6.281620E+02		-2.586693E+02
-3.221526E+02		2.306454E+02		9.150718E+01
-4.329548E+02		5.011561E+02		-6.820128E+01
-2.964510E+02		2.053723E+02		9.107870E+01
7.325633E+02		-6.546827E+01		-6.670950E+02
5.252501E+02		8.050321E+01		-6.057533E+02
4.847974E+02		8.427992E+00		-4.932254E+02
5.995930E+02		-3.632912E+02		-2.363018E+02
5.076025E+02		-4.133757E+01		-4.662649E+02
-1.031959E+02		-8.560003E+01		1.887959E+02
5.816948E+02		-2.051727E+02		-3.765222E+02
-4.162337E+02		4.695533E+02		-5.331961E+01
5.243346E+02		-7.366415E+01		-4.506704E+02
6.035240E+02		-3.259775E+02		-2.775465E+02
-5.333839E+02		-5.191754E+01		5.853014E+02
-5.349315E+02		-1.684000E+02		7.033316E+02
-4.738801E+02		-2.812645E+02		7.551446E+02
-4.110439E+02		-3.252600E+02		7.363039E+02
-4.874829E+02		1.929188E+01		4.681910E+02
5.687667E+02		-1.689889E+02		-3.997778E+02
5.476071E+02		-1.202598E+02		-4.273474E+02
-3.071648E+02		9.010780E+02		-5.939131E+02
-4.998014E+02		-2.506370E+02		7.504384E+02
7.936997E+02		-2.816440E+02		-5.120557E+02
1.847607E+02		-4.223398E+02		2.375791E+02
1.759849E+02		-4.811126E+02		3.051277E+02
-5.305908E+02		3.670418E+02		1.635490E+02
-3.475764E+02		5.165881E+02		-1.690117E+02
-2.695417E+02		1.531528E+02		1.163888E+02
-3.321913E+02		1.472699E+02		1.849214E+02
-4.986151E+02		5.825245E+02		-8.390935E+01
-4.944412E+02		4.528620E+02		4.157916E+01
-4.396314E+02		2.025458E+02		2.370856E+02
-4.276833E+02		4.332518E+02		-5.568447E+00
7.964862E+02		-2.200264E+02		-5.764598E+02
-2.774071E+02		8.845173E+02		-6.071102E+02
-4.081183E+02		3.782435E+02		2.987474E+01
-2.006909E-01		6.384673E+02		-6.382667E+02
3.911851E+02		-3.967645E+02		5.579418E+00
-1.776272E+02		-1.071994E+02		2.848266E+02
-2.919685E+02		6.064279E+02		-3.144595E+02
1.837926E+02		-3.948735E+02		2.110809E+02
5.842592E+02		-3.951498E+02		-1.891094E+02
-1.072533E+02		1.848746E+02		-7.762126E+01
-1.997417E+02		2.338841E+02		-3.414242E+01
-2.430692E+02		2.226244E+02		2.044483E+01
7.974184E+02		-2.518013E+02		-5.456171E+02
7.547422E+02		-9.692472E+01		-6.578175E+02
6.384402E+02		1.201773E+01		-6.504579E+02
7.459712E+02		-3.549645E+02		-3.910066E+02
6.754106E+02		-3.694927E+02		-3.059179E+02
-1.874290E+02		4.915076E+02		-3.040786E+02
-2.035701E+01		-3.400733E+02		3.604303E+02
-6.032789E+01		-3.067630E+02		3.670909E+02
1.267961E+02		-5.500563E+02		4.232602E+02
7.404049E+01		-5.619192E+02		4.878787E+02
-4.557189E+02		1.980008E+02		2.577181E+02
2.043699E+02		-3.371442E+02		1.327744E+02
-2.196794E+02		5.044879E+02		-2.848085E+02
4.444267E+01		5.632635E+02		-6.077061E+02
4.398355E+01		-8.156598E+01		3.758243E+01
1.882943E-01		4.480419E+02		-4.482301E+02
6.661833E+01		4.918562E+02		-5.584745E+02
-4.325268E+02		2.520105E+02		1.805164E+02
-4.524304E+02		2.982419E+02		1.541886E+02
-3.460814E+02		2.610665E+02		8.501490E+01
-3.962243E+02		3.507786E+02		4.544573E+01
-4.739888E+02		1.891280E+02		2.848608E+02
-4.412214E+02		5.459286E+02		-1.047072E+02
2.197110E+02		-2.347982E+02		1.508712E+01
4.781268E+02		3.481408E+01		-5.129409E+02
-1.613281E+02		4.603799E+01		1.152901E+02
9.842174E+01		-8.215034E+01		-1.627139E+01
-5.403519E+02		-1.009626E+02		6.413144E+02
-5.174009E+02		-1.192396E+01		5.293249E+02
-5.400234E+02		-1.310809E+02		6.711042E+02
-5.198671E+02		-2.155530E+02		7.354201E+02
1.834470E+02		-3.406185E+02		1.571715E+02
-5.047115E+02		4.941397E+00		4.997701E+02
1.618575E+02		-3.397348E+02		1.778774E+02
1.770275E+02		-3.619041E+02		1.848766E+02
-5.470170E+02		6.280949E+02		-8.107794E+01
-4.313947E+02		4.586943E+02		-2.729959E+01
-2.864788E+02		5.168406E+02		-2.303618E+02
-1.201015E+02		7.699598E+02		-6.498582E+02
-5.528253E+01		1.165292E+02		-6.124669E+01
-4.109658E+02		5.570695E+02		-1.461037E+02
-4.368538E+01		8.158121E+01		-3.789583E+01
1.653894E+02		-1.408555E+02		-2.453383E+01
-1.511373E+02		2.168544E+02		-6.571710E+01
-7.554756E+01		1.496047E+02		-7.405709E+01
7.907127E+02		-1.851824E+02		-6.055303E+02
7.847072E+02		-3.094695E+02		-4.752377E+02
3.464845E+02		-3.660339E+02		1.954932E+01
1.593452E+02		-5.184701E+02		3.591249E+02
-3.317392E+02		6.306570E+02		-2.989178E+02
3.731679E+00		6.877095E+01		-7.250263E+01
-5.379376E+02		-7.503852E+01		6.129761E+02
-5.266823E+02		-3.094501E+01		5.576273E+02
-3.694022E+02		9.309727E+02		-5.615705E+02
5.865546E+02		2.821594E+01		-6.147706E+02
7.071256E+02		-3.744031E+01		-6.696853E+02
4.190380E+02		-4.110179E+02		-8.020143E+00
-1.560969E+02		8.005668E+02		-6.444699E+02
-2.372924E+02		-8.172839E+01		3.190208E+02
6.328662E+02		-3.577944E+02		-2.750719E+02
7.140667E+02		-3.677480E+02		-3.463186E+02
5.748320E+02		1.864425E+02		-7.612745E+02
1.727100E+02		6.437867E+02		-8.164967E+02
5.608973E+01		-2.763068E+02		2.202170E+02
2.643700E+01		-2.472185E+02		2.207815E+02
-4.030878E+02		9.449453E+02		-5.418575E+02
-4.702280E+02		5.613986E+02		-9.117058E+01
3.034821E+01		5.907852E+02		-6.211334E+02
-4.942236E+02		3.430595E+02		1.511641E+02
5.260023E+01		-1.186414E+02		6.604116E+01
-4.426925E+02		-3.071679E+02		7.498604E+02
-1.898293E+02		8.260309E+01		1.072263E+02
-1.522545E+02		4.674351E+02		-3.151806E+02
5.607260E+01		5.353911E+02		-5.914637E+02
2.765021E+02		-2.876760E+02		1.117385E+01
7.691521E+02		-3.346691E+02		-4.344831E+02
3.065796E+02		-3.281185E+02		2.153887E+01
7.781049E+02		-1.444232E+02		-6.336817E+02
-5.172812E+02		4.478955E+02		6.938569E+01
-2.304887E+02		8.552964E+02		-6.248077E+02
4.750145E+02		-4.293038E+02		-4.571064E+01
4.934795E+02		-1.267816E+01		-4.808014E+02
-5.872604E+01		7.098034E+02		-6.510774E+02
4.867958E+02		4.784150E+01		-5.346373E+02
-6.310596E+02		7.391457E+02		-1.080861E+02
-2.121779E+01		-1.436803E+02		1.648981E+02
-2.061006E+02		-9.751485E+01		3.036154E+02
-2.249103E+02		2.324835E+02		-7.573233E+00
-1.922407E+02		8.284872E+02		-6.362465E+02
-1.525365E+02		-1.130449E+02		2.655815E+02
5.021702E+02		-4.322358E+02		-6.993440E+01
1.821764E+02		-4.524333E+02		2.702569E+02
-2.548132E+02		1.809885E+02		7.382475E+01
-4.468427E+02		9.673710E+02		-5.205283E+02
-6.022570E+02		6.967834E+02		-9.452647E+01
2.233400E+02		-3.124043E+02		8.906423E+01
-3.360509E+02		9.157480E+02		-5.796971E+02
1.230045E+02		-9.890537E+01		-2.409911E+01
5.917688E+02		-2.406269E+02		-3.511420E+02
1.696160E+02		-4.988096E+02		3.291936E+02
-1.109635E+02		-1.725963E+02		2.835598E+02
-4.723791E+02		3.218570E+02		1.505221E+02
-3.944728E+02		4.939231E+02		-9.945030E+01
-4.535290E+02		4.464423E+02		7.086667E+00
4.330054E+01		-1.729381E+02		1.296375E+02
-3.525416E+02		1.336997E+02		2.188419E+02
5.564696E+02		1.217385E+02		-6.782082E+02
-2.574993E+02		1.569652E+02		1.005341E+02
-3.686260E+02		5.120293E+02		-1.434033E+02
-1.360454E+02		6.272757E+00		1.297727E+02
-6.509607E+02		7.632530E+02		-1.122923E+02
-5.691112E+02		6.530466E+02		-8.393536E+01
2.607620E+02		-2.256125E+02		-3.514949E+01
5.752841E+02		2.174770E+02		-7.927611E+02
-1.734564E+01		-1.725141E+02		1.898598E+02
5.442652E+01		4.456728E+02		-5.000993E+02
-3.568554E+02		1.199117E+02		2.369437E+02
7.212279E+01		-6.920845E+01		-2.914347E+00
-4.697813E+02		3.130511E+01		4.384762E+02
1.809470E+02		5.658108E+02		-7.467578E+02
-4.974403E+02		6.640090E+01		4.310394E+02
2.281699E+02		-2.816290E+02		5.345916E+01
-3.727321E+02		3.038734E+02		6.885863E+01
5.741576E+02		2.423391E+02		-8.164967E+02
-2.438217E+02		5.107638E+02		-2.669421E+02
1.032333E+02		-5.593344E+02		4.561011E+02
1.452695E+02		-5.359718E+02		3.907023E+02
-4.078567E+02		4.649917E+02		-5.713497E+01
1.143608E+02		-3.155603E+02		2.011995E+02
-5.123813E+02		9.272302E+01		4.196583E+02
2.123796E+02		5.262115E+02		-7.385911E+02
-2.011250E+00		-2.074855E+02		2.094967E+02
-3.832439E+02		6.069320E+02		-2.236881E+02
-5.240512E+02		6.049440E+02		-8.089284E+01
-4.422762E+02		9.628940E+02		-5.206178E+02
5.009553E+01		-1.568145E+02		1.067190E+02
1.986073E+02		-1.884822E+02		-1.012517E+01
-3.113198E+02		1.528626E+02		1.584572E+02
-1.227916E+02		-1.989399E+01		1.426856E+02
-3.259663E+02		5.186058E+02		-1.926395E+02
5.997938E+02		-2.822806E+02		-3.175132E+02
-3.855897E+02		1.549822E+02		2.306075E+02
6.120750E+02		2.268716E+01		-6.347621E+02
-1.118958E+02		-4.628565E+01		1.581815E+02
-2.428854E+02		2.068542E+02		3.603112E+01
-3.802717E+02		4.367991E+02		-5.652742E+01
-4.252102E+02		1.858544E+02		2.393557E+02
-8.877628E+01		7.406750E+02		-6.518987E+02
5.051006E+02		6.315207E+01		-5.682526E+02
-2.948782E+01		6.764357E+02		-6.469478E+02
-5.081111E+02		1.785900E+02		3.295211E+02
5.508854E+02		-4.229336E+02		-1.279518E+02
5.684912E+02		1.514728E+02		-7.199640E+02
4.459362E+02		-4.217068E+02		-2.422940E+01
6.732375E+02		-8.956834E+00		-6.642807E+02
-4.267140E+02		1.655088E+01		4.101632E+02
8.738637E+01		-2.993674E+02		2.119810E+02
-4.315333E+02		2.232365E+02		2.082967E+02
-3.961852E+02		5.690162E+02		-1.728310E+02
-5.268611E+02		1.566560E+02		3.702051E+02
5.306627E+01		-1.390232E+02		8.595693E+01
1.661784E+02		6.061949E+02		-7.723733E+02
5.280038E+02		-4.301429E+02		-9.786088E+01
2.626597E+02		-2.578052E+02		-4.854502E+00
-5.236668E+02		1.246508E+02		3.990160E+02
5.690023E+02		-4.111922E+02		-1.578101E+02
3.064082E+01		4.389451E+02		-4.695860E+02
6.524890E+01		4.657975E+02		-5.310464E+02
-4.898761E+02		1.791280E+02		3.107481E+02
-4.175402E+02		4.029070E+02		1.463313E+01
-3.872987E+02		5.849049E+02		-1.976062E+02
-1.756327E+02		2.259830E+02		-5.035028E+01
2.244489E+02		-2.584030E+02		3.395418E+01
6.032571E+02		-3.332272E+02		-2.700299E+02
2.789699E+02		-2.225501E+02		-5.641979E+01
LINES 246 738
2		0		29
2		1		234
2		2		73
2		3		224
2		4		209
2		5		94
2		6		129
2		7		253
2		8		50
2		9		137
2		10		164
2		11		85
2		12		59
2		13		195
2		14		157
2		15		247
2		16		211
2		17		151
2		18		183
2		19		223
2		20		133
2		21		252
2		22		86
2		23		88
2		24		223
2		25		164
2		26		28
2		26		42
2		26		168
2		27		185
2		27		38
2		28		179
2		29		179
2		30		150
2		30		61
2		31		234
2		31		197
2		32		145
2		32		101
2		32		119
2		33		128
2		33		211
2		34		98
2		34		36
2		35		101
2		35		44
2		36		171
2		37		134
2		37		80
2		38		227
2		39		160
2		39		103
2		40		75
2		40		252
2		41		160
2		41		45
2		42		222
2		43		177
2		43		52
2		44		206
2		45		53
2		46		219
2		46		252
2		47		130
2		47		131
2		48		108
2		48		109
2		49		149
2		49		55
2		50		149
2		51		197
2		51		111
2		52		53
2		54		175
2		54		68
2		55		109
2		56		125
2		56		79
2		57		170
2		57		74
2		58		170
2		58		178
2		59		147
2		60		218
2		60		187
2		61		186
2		61		216
2		62		216
2		62		184
2		63		212
2		63		145
2		64		182
2		64		157
2		65		89
2		65		236
2		66		115
2		66		182
2		66		248
2		67		124
2		67		79
2		68		158
2		69		99
2		69		248
2		70		146
2		70		228
2		71		126
2		71		135
2		72		165
2		72		168
2		73		128
2		74		113
2		75		244
2		76		122
2		76		123
2		77		166
2		77		250
2		78		166
2		78		223
2		80		156
2		81		233
2		81		221
2		82		139
2		82		154
2		83		139
2		83		138
2		84		151
2		84		91
2		85		86
2		87		204
2		87		205
2		88		204
2		89		225
2		89		100
2		90		174
2		90		110
2		91		203
2		92		152
2		92		146
2		93		148
2		94		245
2		95		152
2		95		246
2		96		236
2		96		97
2		97		180
2		98		201
2		99		201
2		100		247
2		102		215
2		102		251
2		103		162
2		104		188
2		104		150
2		105		176
2		105		196
2		106		108
2		106		130
2		107		111
2		107		131
2		110		112
2		112		113
2		112		207
2		114		212
2		114		190
2		115		206
2		116		203
2		116		218
2		117		136
2		117		226
2		118		123
2		118		120
2		119		237
2		121		215
2		121		176
2		122		250
2		124		156
2		125		154
2		126		155
2		127		205
2		127		178
2		132		175
2		132		144
2		133		221
2		134		233
2		135		232
2		136		167
2		137		165
2		138		252
2		140		231
2		140		192
2		141		240
2		142		235
2		142		143
2		143		210
2		144		213
2		147		180
2		148		239
2		153		242
2		153		155
2		158		167
2		159		232
2		159		169
2		161		226
2		161		228
2		162		227
2		163		173
2		163		189
2		164		193
2		169		241
2		171		223
2		171		186
2		172		213
2		173		190
2		174		200
2		177		219
2		181		187
2		181		206
2		183		214
2		184		195
2		185		231
2		188		217
2		191		242
2		191		253
2		192		202
2		193		210
2		194		245
2		194		246
2		195		220
2		197		199
2		198		240
2		198		209
2		199		208
2		200		251
2		206		224
2		207		235
2		208		243
2		211		249
2		214		239
2		217		222
2		220		225
2		229		238
2		229		247
2		230		241
2		230		244
2		237		249
2		238		243
POINT_DATA 254
scalars NodeType integer
LOOKUP_TABLE default
7
7
7
7
7
7
7
7
7
7
7
7
7
7
7
7
7
7
7
7
7
7
7
7
7
7
0
0
0
0
0
0
0
0
0
0
0
0
0
0
0
0
0
0
0
0
0
0
0
0
0
0
0
0
0
0
0
0
0
0
0
0
0
0
0
0
0
0
0
0
0
0
0
0
0
0
0
0
0
0
0
0
0
0
0
0
0
0
0
0
0
0
0
9
0
0
0
0
0
0
0
0
0
0
0
0
0
0
0
0
0
0
0
0
0
0
0
0
0
0
9
0
0
0
0
0
0
0
0
9
0
0
0
0
0
0
0
0
0
0
0
8
0
0
0
0
0
0
0
0
0
0
0
0
0
0
0
0
0
0
0
0
0
0
0
0
0
0
0
0
0
0
8
0
0
0
0
0
0
0
0
0
0
0
0
0
0
0
0
8
0
0
0
0
0
0
9
0
0
0
0
0
8
0
0
0
0
0
0
0
0
0
0
0
0
0
0
0
0
0
0
0
0
0
0
0
0
0
0
0
0
0
0
0
0
0
0
0
0
0
0
0
0
0
0
0
0
0
0
0
0
0
0
0
CELL_DATA 246
SCALARS SlipSystem integer
LOOKUP_TABLE default
3
3
3
3
1
1
1
1
2
2
2
2
2
2
2
2
1
1
3
3
2
2
2
2
1
1
3
1
2
1
1
3
3
1
1
3
3
1
3
2
3
3
3
3
3
3
3
2
2
1
1
1
1
1
1
1
1
1
1
3
1
1
1
2
2
2
2
2
2
2
2
2
1
1
1
2
2
2
2
2
2
2
2
1
1
2
3
3
3
1
1
2
2
2
2
1
2
3
2
2
1
3
3
1
1
1
1
2
2
3
2
1
3
3
3
3
3
3
2
2
2
2
2
2
2
1
1
2
2
2
2
1
3
1
1
1
1
1
3
1
1
1
2
2
2
3
3
3
1
1
1
1
1
1
1
2
2
2
2
1
2
3
1
1
1
1
1
1
1
3
3
2
1
1
3
2
2
1
2
2
1
1
2
2
1
1
2
2
1
1
1
3
3
3
1
2
3
1
1
1
1
1
1
1
1
1
1
3
1
1
2
1
1
1
1
1
1
3
3
1
1
1
1
1
3
1
1
1
1
1
1
1
1
3
3
1
2
3
1
1
1
1
1
1
2
1
