# vtk DataFile Version 1.0
dislocation microstructure
ASCII
DATASET POLYDATA
POINTS 197 float
-1.407136E+02		-2.213016E+02		3.620151E+02
-4.069171E+02		1.959506E+01		3.873221E+02
-2.678171E+02		5.735064E+02		-3.056893E+02
-3.585793E+02		4.159045E+02		-5.732522E+01
2.435975E+02		5.088909E+02		-7.524885E+02
-3.645297E+01		4.790810E+02		-4.426281E+02
1.137360E+01		4.804267E+01		-5.941627E+01
2.977420E+02		-2.208350E+02		-7.690702E+01
-3.705953E+02		-3.364613E+02		7.070566E+02
-2.633774E+02		-5.962946E+01		3.230069E+02
-5.059046E+01		-1.177741E+02		1.683646E+02
-3.709113E+00		-3.770962E+02		3.808053E+02
-5.645235E+02		3.793574E+02		1.851661E+02
-3.703694E+02		9.044315E+01		2.799262E+02
-5.304416E+02		4.354699E+02		9.497178E+01
-5.136564E+02		1.737037E+02		3.399526E+02
-4.002894E+02		6.227393E+02		-2.224499E+02
-1.296146E+02		4.379697E+02		-3.083551E+02
3.132033E+01		-1.863970E+02		1.550767E+02
-2.594066E+02		2.052232E+02		5.418340E+01
5.559540E+02		2.224913E+01		-5.782031E+02
6.021915E+02		-3.324134E+02		-2.697781E+02
-9.943729E+01		-2.899623E+02		3.893996E+02
3.188077E+01		-5.505567E+02		5.186760E+02
-2.457631E+02		2.346175E+02		1.114560E+01
-1.949524E+01		-1.452330E+02		1.647282E+02
-2.302193E+02		-5.575138E+01		2.859706E+02
6.583834E+01		-1.792131E+02		1.133747E+02
-1.595295E+02		-1.347105E+02		2.942400E+02
-1.402118E+02		-1.833897E+02		3.236015E+02
-3.976129E+02		-6.793618E-01		3.982923E+02
-3.900890E+02		2.581514E+01		3.642738E+02
-3.774640E+02		5.490502E+02		-1.715863E+02
-3.408068E+02		5.868742E+02		-2.460674E+02
-1.050029E+02		2.469604E+02		-1.419576E+02
-3.872517E+02		4.884831E+02		-1.012314E+02
-3.785095E+02		4.507133E+02		-7.220376E+01
2.293544E+02		2.671071E+02		-4.964616E+02
3.271574E+02		2.923270E+02		-6.194843E+02
3.527046E+02		4.101703E+02		-7.628749E+02
9.213526E+01		2.975405E+02		-3.896758E+02
-2.690721E+01		3.828928E+02		-3.559856E+02
2.370268E+02		2.991343E+01		-2.669402E+02
4.555921E+01		1.167620E+02		-1.623212E+02
5.974011E+01		1.833098E+01		-7.807109E+01
3.505364E+02		-9.866041E+01		-2.518760E+02
3.964046E+02		-2.178166E+02		-1.785880E+02
-4.292735E+02		-1.188600E+02		5.481335E+02
-4.423455E+02		-2.042664E+02		6.466119E+02
-4.313701E+02		-2.689075E+02		7.002776E+02
-4.054475E+02		-3.097298E+02		7.151773E+02
-4.084780E+02		-4.441274E+01		4.528908E+02
3.778754E+02		-1.486160E+02		-2.292594E+02
3.647701E+02		-1.235854E+02		-2.411847E+02
7.860628E+01		-2.833242E+02		2.047179E+02
4.244804E+01		-1.987209E+02		1.562728E+02
6.945069E+02		-2.251084E+02		-4.693985E+02
7.655583E+01		-3.607291E+02		2.841733E+02
5.442681E+01		-4.078465E+02		3.534197E+02
-5.327020E+02		3.574787E+02		1.752233E+02
-3.342698E+02		2.044538E+02		1.298160E+02
-3.252597E+02		1.301804E+02		1.950792E+02
-3.416972E+02		1.008008E+02		2.408964E+02
-4.297082E+02		3.729984E+02		5.670978E+01
-4.837254E+02		4.176053E+02		6.612005E+01
-4.701728E+02		2.225589E+02		2.476139E+02
-4.845854E+02		1.890634E+02		2.955220E+02
6.904912E+02		-1.776836E+02		-5.128076E+02
-2.972131E+02		7.058436E+02		-4.086305E+02
-4.407718E+02		7.488999E+02		-3.081280E+02
-1.257104E+02		5.698843E+02		-4.441739E+02
3.671665E+02		-2.560385E+02		-1.111280E+02
2.033636E+02		5.633531E+01		-2.596989E+02
-2.934992E+02		5.918181E+02		-2.983189E+02
3.732863E-01		7.052330E+01		-7.089658E+01
3.920178E+02		-2.356164E+02		-1.564014E+02
-1.357708E+02		1.372803E+02		-1.509521E+00
-1.950800E+02		1.873174E+02		7.762577E+00
-2.314136E+02		2.050392E+02		2.637434E+01
6.932112E+02		-2.015359E+02		-4.916753E+02
6.712172E+02		-9.774630E+01		-5.734709E+02
6.267837E+02		-2.333805E+01		-6.034457E+02
6.838025E+02		-2.937566E+02		-3.900459E+02
6.520204E+02		-3.285253E+02		-3.234951E+02
-1.080164E+02		4.216219E+02		-3.136055E+02
-2.774787E+01		-3.420968E+02		3.698447E+02
-6.218468E+01		-3.108915E+02		3.730762E+02
7.315848E+01		-5.034260E+02		4.302676E+02
5.947980E+01		-5.366342E+02		4.771544E+02
-4.768616E+02		2.053953E+02		2.714663E+02
-5.725149E+01		1.982282E+02		-1.409767E+02
-1.676017E+02		2.915773E+02		-1.239755E+02
-2.727956E+02		3.063473E+02		-3.355176E+01
6.374903E+01		-1.210140E+02		5.726500E+01
1.159098E+02		1.054599E+02		-2.213697E+02
-1.916335E+02		-8.925166E+01		2.808851E+02
-4.728055E+02		2.636253E+02		2.091801E+02
-4.838806E+02		2.946975E+02		1.891831E+02
-3.623042E+02		2.698277E+02		9.247647E+01
-3.869823E+02		3.144499E+02		7.253238E+01
-3.619880E+02		5.712252E+02		-2.092372E+02
-3.862181E+02		5.213451E+02		-1.351270E+02
1.725688E+02		2.715387E+02		-4.441075E+02
2.767497E+02		2.725575E+02		-5.493072E+02
1.650516E+02		8.141959E+01		-2.464712E+02
2.961480E+02		-2.755863E+01		-2.685894E+02
-4.377525E+02		-1.583744E+02		5.961269E+02
-4.193447E+02		-8.175005E+01		5.010948E+02
-4.408396E+02		-1.801023E+02		6.209419E+02
-4.407006E+02		-2.327070E+02		6.734076E+02
-4.022926E+02		-2.266060E+01		4.249532E+02
-4.140412E+02		-6.335096E+01		4.773921E+02
6.677171E+01		-2.425907E+02		1.758190E+02
8.248801E+01		-3.227874E+02		2.402994E+02
-3.250636E+02		1.681246E+02		1.569390E+02
-3.471030E+02		2.374853E+02		1.096177E+02
-2.150642E+02		3.119631E+02		-9.689895E+01
-2.000383E+02		6.380350E+02		-4.379967E+02
-8.911263E+01		9.064482E+01		-1.532186E+00
4.327536E+01		-8.159960E+01		3.832425E+01
-6.714912E+01		7.380200E+01		-6.652883E+00
-2.355585E+01		1.502473E+02		-1.266915E+02
-1.631877E+02		1.628546E+02		3.330398E-01
-1.111735E+02		1.123271E+02		-1.153535E+00
6.863670E+02		-1.531080E+02		-5.332590E+02
6.939870E+02		-2.483413E+02		-4.456456E+02
-4.026089E+01		1.743180E+02		-1.340571E+02
6.875009E+01		-4.602951E+02		3.915450E+02
-3.184888E+02		5.938519E+02		-2.753631E+02
-9.531586E+00		7.701204E+01		-6.748045E+01
-4.337780E+02		-1.381450E+02		5.719230E+02
-4.244315E+02		-1.001554E+02		5.245869E+02
7.999286E+01		1.158722E+02		-1.958651E+02
5.893528E+02		7.435383E+00		-5.967882E+02
6.550989E+02		-6.235826E+01		-5.927406E+02
-3.719721E+02		3.851941E+01		3.334527E+02
-3.681019E+01		8.152211E+01		-4.471192E+01
2.681810E+01		5.992285E+01		-8.674095E+01
6.278119E+02		-3.351570E+02		-2.926549E+02
6.710269E+02		-3.139474E+02		-3.570795E+02
3.572542E+02		3.269237E+02		-6.841780E+02
2.867928E+02		4.946911E+02		-7.814839E+02
3.405691E+01		3.316727E+02		-3.657296E+02
3.188906E+01		-1.883438E+02		1.564547E+02
-3.649201E+02		7.405627E+02		-3.756426E+02
-4.415051E+02		6.572990E+02		-2.157939E+02
-2.218789E+02		-6.085822E+01		2.827371E+02
-5.088861E+02		3.337482E+02		1.751378E+02
-4.023906E+02		3.381273E+02		6.426331E+01
-3.758423E+02		2.954078E+02		8.043450E+01
-2.793206E+02		1.711799E+00		2.776088E+02
6.982614E+01		-1.513151E+02		8.148893E+01
-8.875905E+01		5.250682E+02		-4.363092E+02
-8.212093E+01		4.106551E+02		-3.285341E+02
6.908094E+02		-2.716740E+02		-4.191354E+02
3.471469E+02		-2.567199E+02		-9.042704E+01
6.803117E+02		-1.266891E+02		-5.536225E+02
1.346963E+02		2.808351E+02		-4.155314E+02
-2.676597E+02		6.865672E+02		-4.189075E+02
2.675475E+02		2.181901E+00		-2.697294E+02
3.239891E+02		-6.091143E+01		-2.630776E+02
-1.612752E+02		6.053622E+02		-4.440870E+02
3.019993E+02		2.798351E+02		-5.818344E+02
-4.638184E+02		7.132073E+02		-2.493889E+02
-1.935386E+01		-1.450741E+02		1.644279E+02
3.265334E+02		4.551045E+02		-7.816379E+02
3.636997E+02		3.649933E+02		-7.286930E+02
-2.459281E+02		6.715595E+02		-4.256314E+02
2.023125E+02		2.677851E+02		-4.700976E+02
3.854614E+02		-2.519117E+02		-1.335497E+02
6.745319E+01		-3.822693E+02		3.148161E+02
-2.728329E+02		2.672299E+02		5.602905E+00
-4.032813E+02		7.510125E+02		-3.477312E+02
-3.195945E+02		2.732070E+01		2.922738E+02
2.535305E+02		2.687610E+02		-5.222915E+02
-3.304211E+02		7.249273E+02		-3.945062E+02
2.148851E+01		9.881421E+01		-1.203027E+02
3.908106E+02		-1.833220E+02		-2.074886E+02
6.139678E+01		-4.355420E+02		3.741453E+02
-1.497507E+02		-1.590696E+02		3.088204E+02
2.677577E+00		3.560455E+02		-3.587230E+02
-5.523099E+01		4.111191E+02		-3.558881E+02
-4.554866E+02		3.975122E+02		5.797443E+01
-7.305836E+00		1.129007E+02		-1.055949E+02
-1.349185E+02		2.707094E+02		-1.357909E+02
3.438637E+02		3.066418E+02		-6.505055E+02
6.256205E+01		3.132719E+02		-3.758340E+02
-2.464192E+02		3.163117E+02		-6.989257E+01
-2.522979E+02		-2.421133E+01		2.765093E+02
-4.578590E+02		7.348389E+02		-2.769800E+02
-4.577377E+02		6.862113E+02		-2.284736E+02
3.182244E+02		-2.415317E+02		-7.669274E+01
-8.073730E+01		2.240821E+02		-1.433448E+02
2.173864E+00		-1.664094E+02		1.642356E+02
-7.077190E+01		5.036755E+02		-4.329036E+02
-3.465830E+02		3.620639E+01		3.103766E+02
1.404832E+02		9.350738E+01		-2.339906E+02
LINES 184 552
2		0		29
2		1		31
2		2		73
2		3		36
2		4		141
2		5		194
2		6		74
2		7		191
2		8		50
2		9		26
2		10		164
2		11		85
2		12		59
2		13		62
2		14		64
2		15		66
2		16		145
2		17		84
2		18		27
2		19		78
2		20		133
2		21		138
2		22		86
2		23		88
2		24		171
2		25		164
2		26		146
2		26		188
2		27		143
2		27		151
2		28		95
2		28		179
2		29		179
2		30		110
2		30		31
2		31		135
2		32		100
2		32		101
2		33		100
2		33		128
2		34		184
2		34		192
2		35		101
2		35		36
2		37		168
2		37		174
2		38		162
2		38		185
2		39		165
2		39		166
2		40		157
2		40		186
2		41		181
2		41		180
2		42		72
2		42		159
2		43		176
2		43		132
2		44		137
2		45		160
2		45		53
2		46		75
2		46		177
2		47		130
2		47		131
2		48		108
2		48		109
2		49		109
2		49		50
2		51		110
2		51		111
2		52		177
2		52		53
2		54		112
2		54		113
2		55		112
2		55		143
2		56		125
2		56		79
2		57		113
2		57		170
2		58		170
2		58		178
2		59		147
2		60		114
2		60		115
2		61		114
2		61		62
2		63		148
2		63		182
2		64		182
2		65		96
2		65		89
2		66		89
2		67		124
2		67		79
2		68		175
2		68		158
2		69		189
2		69		172
2		70		152
2		70		161
2		71		155
2		71		169
2		72		104
2		73		128
2		75		169
2		76		122
2		76		123
2		77		122
2		77		78
2		80		134
2		80		156
2		81		134
2		81		133
2		82		139
2		82		154
2		83		139
2		83		138
2		84		153
2		85		86
2		87		127
2		87		88
2		90		192
2		90		126
2		91		184
2		91		116
2		92		171
2		92		187
2		93		151
2		93		119
2		94		132
2		94		196
2		95		146
2		96		97
2		97		147
2		98		115
2		98		149
2		99		149
2		99		148
2		102		157
2		102		168
2		103		162
2		103		174
2		104		196
2		105		160
2		105		159
2		106		108
2		106		130
2		107		111
2		107		131
2		116		187
2		117		161
2		117		167
2		118		123
2		118		120
2		121		183
2		121		126
2		124		156
2		125		154
2		127		178
2		129		183
2		129		136
2		135		195
2		137		176
2		140		185
2		140		166
2		141		165
2		142		180
2		142		186
2		143		193
2		144		175
2		144		172
2		145		190
2		150		173
2		150		188
2		152		194
2		153		181
2		155		191
2		158		167
2		163		189
2		163		190
2		164		193
2		173		195
POINT_DATA 197
scalars NodeType integer
LOOKUP_TABLE default
7
7
7
7
7
7
7
7
7
7
7
7
7
7
7
7
7
7
7
7
7
7
7
7
7
7
0
0
0
0
0
0
0
0
0
0
0
0
0
0
0
0
0
0
9
0
0
0
0
0
0
0
0
0
0
0
0
0
0
0
0
0
0
0
0
0
0
0
0
0
0
0
0
0
9
0
0
0
0
0
0
0
0
0
0
0
0
0
0
0
0
0
0
0
0
0
0
0
0
0
0
0
0
0
0
0
0
0
0
0
0
0
0
0
0
0
0
0
0
9
9
0
0
0
0
0
0
0
0
0
0
0
0
0
0
0
9
0
0
0
0
0
0
0
0
0
0
0
0
0
0
0
0
0
0
0
0
0
0
0
0
0
0
0
0
0
0
0
0
0
0
0
0
0
0
0
0
0
0
0
0
0
0
0
0
0
0
0
0
0
0
0
0
0
0
0
0
CELL_DATA 184
SCALARS SlipSystem integer
LOOKUP_TABLE default
3
3
3
3
1
1
1
1
2
2
2
2
2
2
2
2
1
1
3
3
2
2
2
2
1
1
3
1
1
13
3
3
3
2
2
1
3
3
3
3
1
1
3
3
1
1
1
1
1
1
1
1
1
1
1
1
1
1
1
1
1
1
1
2
2
2
2
2
2
2
2
1
1
2
2
2
2
2
2
2
2
2
2
2
2
2
2
2
2
2
2
2
2
2
2
2
1
1
1
1
1
1
1
1
1
3
1
3
3
3
3
2
2
2
2
2
2
2
2
1
2
2
2
1
1
1
1
1
1
13
13
1
1
3
2
2
2
2
2
2
1
1
1
1
1
1
1
2
2
2
2
1
1
1
3
3
1
1
2
2
2
1
1
1
1
1
1
1
1
1
3
1
1
1
1
1
1
1
1
1
1
1
3
1
