# vtk DataFile Version 1.0
dislocation microstructure
ASCII
DATASET POLYDATA
POINTS 264 float
-1.407136E+02		-2.213016E+02		3.620151E+02
-4.069171E+02		1.959506E+01		3.873221E+02
-2.678171E+02		5.735064E+02		-3.056893E+02
-3.585793E+02		4.159045E+02		-5.732522E+01
2.435975E+02		5.088909E+02		-7.524885E+02
-3.645297E+01		4.790810E+02		-4.426281E+02
1.137360E+01		4.804267E+01		-5.941627E+01
2.977420E+02		-2.208350E+02		-7.690702E+01
-3.705953E+02		-3.364613E+02		7.070566E+02
-2.633774E+02		-5.962946E+01		3.230069E+02
-5.059046E+01		-1.177741E+02		1.683646E+02
-3.709113E+00		-3.770962E+02		3.808053E+02
-5.645235E+02		3.793574E+02		1.851661E+02
-3.703694E+02		9.044315E+01		2.799262E+02
-5.304416E+02		4.354699E+02		9.497178E+01
-5.136564E+02		1.737037E+02		3.399526E+02
-4.002894E+02		6.227393E+02		-2.224499E+02
-1.296146E+02		4.379697E+02		-3.083551E+02
3.132033E+01		-1.863970E+02		1.550767E+02
-2.594066E+02		2.052232E+02		5.418340E+01
5.559540E+02		2.224913E+01		-5.782031E+02
6.021915E+02		-3.324134E+02		-2.697781E+02
-9.943729E+01		-2.899623E+02		3.893996E+02
3.188077E+01		-5.505567E+02		5.186760E+02
-2.457631E+02		2.346175E+02		1.114560E+01
-1.949524E+01		-1.452330E+02		1.647282E+02
-1.027259E+02		-1.311933E+02		2.339193E+02
5.729913E+02		7.143887E+01		-6.444302E+02
-1.019306E+02		-1.479378E+02		2.498685E+02
-1.135044E+02		-2.043836E+02		3.178880E+02
-2.134624E+02		1.351653E+02		7.829709E+01
-4.501452E+02		1.271754E+01		4.374277E+02
1.382025E+02		-3.421170E+02		2.039145E+02
-3.690082E+02		6.283011E+02		-2.592929E+02
-3.299195E+02		2.252549E+02		1.046646E+02
-4.368146E+02		5.007241E+02		-6.390951E+01
-3.097140E+02		2.035522E+02		1.061618E+02
7.404835E+02		-6.128009E+01		-6.792034E+02
5.562606E+02		4.984633E+01		-6.061069E+02
5.277508E+02		-6.153139E+00		-5.215977E+02
-1.259923E+02		-1.272271E+02		2.532194E+02
5.400424E+02		-4.308878E+01		-4.969536E+02
-8.239572E+01		-9.629349E+01		1.786892E+02
6.100913E+02		-2.113326E+02		-3.987587E+02
2.019425E+02		-1.564491E+02		-4.549333E+01
5.538457E+02		-7.441689E+01		-4.794288E+02
6.260093E+02		-3.377894E+02		-2.882200E+02
-5.453427E+02		-4.379334E+01		5.891361E+02
-5.469198E+02		-1.646324E+02		7.115522E+02
-4.772673E+02		-2.849883E+02		7.622556E+02
-4.104779E+02		-3.278356E+02		7.383135E+02
-4.917402E+02		2.412717E+01		4.676131E+02
5.967943E+02		-1.731934E+02		-4.236009E+02
5.755442E+02		-1.215647E+02		-4.539795E+02
-3.056625E+02		9.276546E+02		-6.219921E+02
-5.065384E+02		-2.528815E+02		7.594199E+02
8.066365E+02		-2.901393E+02		-5.164971E+02
1.977758E+02		-4.290424E+02		2.312666E+02
1.880705E+02		-4.894142E+02		3.013437E+02
-5.305663E+02		3.679050E+02		1.626613E+02
-3.751538E+02		5.535548E+02		-1.784010E+02
6.549799E+02		-3.756729E+02		-2.793069E+02
-3.405154E+02		1.574193E+02		1.830962E+02
-5.086132E+02		5.637972E+02		-5.518405E+01
-4.960946E+02		4.567252E+02		3.936933E+01
-3.993222E+02		1.906996E+02		2.086226E+02
-4.506497E+02		4.503323E+02		3.174649E-01
8.105912E+02		-2.259944E+02		-5.845968E+02
-2.738778E+02		9.094401E+02		-6.355623E+02
-4.216129E+02		3.794460E+02		4.216691E+01
2.003595E+01		6.453566E+02		-6.653926E+02
3.876721E+02		-4.173625E+02		2.969034E+01
-1.759370E+02		-1.151418E+02		2.910787E+02
-2.913026E+02		6.082289E+02		-3.169263E+02
1.962047E+02		-3.997202E+02		2.035155E+02
6.124639E+02		-4.206866E+02		-1.917773E+02
-1.043268E+02		1.891471E+02		-8.482026E+01
-2.016844E+02		2.383463E+02		-3.666189E+01
-2.424212E+02		2.227302E+02		1.969100E+01
8.111613E+02		-2.592031E+02		-5.519582E+02
7.652186E+02		-9.538642E+01		-6.698321E+02
6.385429E+02		1.896419E+01		-6.575071E+02
7.540158E+02		-3.646060E+02		-3.894098E+02
6.788201E+02		-3.783270E+02		-3.004930E+02
-1.849453E+02		5.049054E+02		-3.199601E+02
-1.995626E+01		-3.401989E+02		3.601551E+02
-6.017069E+01		-3.066812E+02		3.668519E+02
1.323666E+02		-5.569905E+02		4.246239E+02
7.498434E+01		-5.651493E+02		4.901649E+02
-4.633808E+02		2.130497E+02		2.503312E+02
2.266979E+02		-3.637578E+02		1.370600E+02
-2.221711E+02		5.251555E+02		-3.029844E+02
6.876026E+01		5.619291E+02		-6.306894E+02
4.370703E+01		-8.158016E+01		3.787312E+01
-2.028866E+00		4.413382E+02		-4.393093E+02
9.208992E+01		4.811788E+02		-5.732687E+02
-4.289051E+02		2.513133E+02		1.775918E+02
-4.491560E+02		2.981919E+02		1.509641E+02
-3.552898E+02		2.583776E+02		9.691222E+01
-4.083368E+02		3.509609E+02		5.737592E+01
-4.854433E+02		2.027415E+02		2.827018E+02
-3.581152E+02		1.032042E+02		2.549110E+02
-1.431634E+02		5.163079E+01		9.153259E+01
1.030896E+02		-6.272510E+01		-4.036451E+01
-5.533185E+02		-9.412212E+01		6.474406E+02
-5.267955E+02		-3.752242E+00		5.305477E+02
-5.528701E+02		-1.255277E+02		6.783978E+02
-5.293253E+02		-2.152612E+02		7.445865E+02
1.921918E+02		-3.690613E+02		1.768695E+02
-5.121637E+02		1.248489E+01		4.996788E+02
1.713142E+02		-3.598838E+02		1.885696E+02
8.765300E+01		5.053017E+02		-5.929547E+02
-5.627995E+02		6.146777E+02		-5.187816E+01
-4.504124E+02		4.775682E+02		-2.715585E+01
-2.979747E+02		5.449734E+02		-2.469987E+02
-1.078057E+02		7.872264E+02		-6.794208E+02
-5.275831E+01		1.162833E+02		-6.352494E+01
-4.090549E+02		5.299366E+02		-1.208817E+02
-4.355209E+01		8.158751E+01		-3.803542E+01
1.798814E+02		-1.311434E+02		-4.873799E+01
-1.499442E+02		2.228910E+02		-7.294682E+01
-7.206224E+01		1.510870E+02		-7.902476E+01
8.046379E+02		-1.892320E+02		-6.154059E+02
7.964101E+02		-3.187397E+02		-4.776704E+02
3.379287E+02		-3.826861E+02		4.475744E+01
1.688779E+02		-5.269554E+02		3.580775E+02
-3.324690E+02		6.339839E+02		-3.015149E+02
3.729127E+00		6.877233E+01		-7.250145E+01
-5.505934E+02		-6.739309E+01		6.179865E+02
-5.375522E+02		-2.263677E+01		5.601890E+02
-3.701293E+02		9.614677E+02		-5.913385E+02
5.829113E+02		3.372742E+01		-6.166387E+02
7.120409E+02		-3.133305E+01		-6.807079E+02
4.200568E+02		-4.348015E+02		1.474468E+01
-1.458345E+02		8.198659E+02		-6.740314E+02
-2.383103E+02		-8.420370E+01		3.225140E+02
6.317765E+02		-3.727085E+02		-2.590680E+02
7.198989E+02		-3.769973E+02		-3.429016E+02
6.065223E+02		1.682475E+02		-7.747698E+02
1.491933E+02		6.673033E+02		-8.164967E+02
5.147806E+01		-2.829536E+02		2.314755E+02
2.068168E+01		-2.502664E+02		2.295847E+02
-4.007927E+02		9.788688E+02		-5.780761E+02
-4.754763E+02		5.383833E+02		-6.290701E+01
5.312849E+01		5.928021E+02		-6.459306E+02
-4.937343E+02		3.446766E+02		1.490576E+02
5.465762E+01		-1.190550E+02		6.439741E+01
-4.437307E+02		-3.106982E+02		7.544289E+02
-1.743948E+02		9.237435E+01		8.202046E+01
-1.472260E+02		4.717754E+02		-3.245494E+02
8.144405E+01		5.296475E+02		-6.110916E+02
2.710475E+02		-3.228192E+02		5.177175E+01
7.792044E+02		-3.443253E+02		-4.348791E+02
2.904326E+02		-3.412651E+02		5.083244E+01
7.909861E+02		-1.460925E+02		-6.448936E+02
-5.189283E+02		4.497488E+02		6.917946E+01
-2.247862E+02		8.784217E+02		-6.536355E+02
4.842979E+02		-4.570019E+02		-2.729599E+01
5.306492E+02		-1.760296E+01		-5.130462E+02
-4.235575E+01		7.224277E+02		-6.800720E+02
5.265020E+02		1.743092E+01		-5.439329E+02
-6.570034E+02		7.258500E+02		-6.884656E+01
-2.351585E+01		-1.415807E+02		1.650965E+02
-2.058283E+02		-1.030558E+02		3.088841E+02
-2.265463E+02		2.347479E+02		-8.201627E+00
-1.841822E+02		8.497633E+02		-6.655810E+02
-1.490492E+02		-1.230154E+02		2.720646E+02
5.159966E+02		-4.611556E+02		-5.484097E+01
1.951033E+02		-4.602846E+02		2.651813E+02
-4.016312E+02		4.576257E+02		-5.599448E+01
3.749959E+01		6.191028E+02		-6.566024E+02
-6.247357E+02		6.867461E+02		-6.201036E+01
2.539106E+02		-3.367982E+02		8.288760E+01
-3.361059E+02		9.439257E+02		-6.078198E+02
1.309838E+02		-8.416207E+01		-4.682170E+01
6.205379E+02		-2.494358E+02		-3.711021E+02
1.806337E+02		-5.075063E+02		3.268726E+02
-1.038114E+02		-1.769363E+02		2.807477E+02
-4.703004E+02		3.235752E+02		1.467253E+02
-4.294738E+02		5.170459E+02		-8.757206E+01
-4.556873E+02		4.522088E+02		3.478563E+00
4.413627E+01		-1.737528E+02		1.296165E+02
-3.601531E+02		1.493005E+02		2.108526E+02
5.877058E+02		9.694806E+01		-6.846539E+02
6.288992E+02		-3.171012E+02		-3.117980E+02
-3.510644E+02		6.316691E+02		-2.806047E+02
-1.162026E+02		8.556946E+00		1.076457E+02
-6.722857E+02		7.419280E+02		-6.964239E+01
-5.881057E+02		6.423560E+02		-5.425026E+01
2.439179E+02		-1.982636E+02		-4.565433E+01
6.083039E+02		2.002834E+02		-8.085873E+02
-2.135354E+01		-1.714113E+02		1.927648E+02
7.193479E+01		4.254507E+02		-4.973855E+02
-3.509943E+02		1.281784E+02		2.228159E+02
8.124734E+01		-4.763451E+01		-3.361284E+01
-4.796889E+02		2.470931E+01		4.549796E+02
1.677482E+02		5.634821E+02		-7.312304E+02
-5.117518E+02		6.119217E+01		4.505597E+02
-3.937404E+02		5.429041E+02		-1.491636E+02
-3.832716E+02		3.028945E+02		8.037718E+01
6.108882E+02		2.056085E+02		-8.164967E+02
-2.517252E+02		5.357817E+02		-2.840565E+02
1.066286E+02		-5.647293E+02		4.581007E+02
1.529385E+02		-5.439140E+02		3.909755E+02
-4.243971E+02		4.822669E+02		-5.786976E+01
1.129799E+02		-3.278251E+02		2.148451E+02
-5.311061E+02		9.374164E+01		4.373645E+02
2.089315E+02		5.204822E+02		-7.294137E+02
-7.134780E+00		-2.080832E+02		2.152180E+02
-3.793911E+02		6.098814E+02		-2.304903E+02
-5.371204E+02		5.891345E+02		-5.201405E+01
-4.201983E+02		9.940154E+02		-5.738170E+02
5.147474E+01		-1.577806E+02		1.063058E+02
2.229852E+02		-1.804442E+02		-4.254092E+01
-3.212563E+02		1.673664E+02		1.538899E+02
-1.013640E+02		-2.133714E+01		1.227011E+02
-3.406784E+02		5.488050E+02		-2.081266E+02
6.281660E+02		-2.933314E+02		-3.348346E+02
-3.118535E+02		6.215081E+02		-3.096546E+02
6.104019E+02		2.936383E+01		-6.397657E+02
-8.972203E+01		-5.216858E+01		1.418906E+02
-2.413206E+02		2.088642E+02		3.245638E+01
-3.813691E+02		4.354201E+02		-5.405101E+01
-4.349064E+02		2.184683E+02		2.164381E+02
-7.440621E+01		7.556997E+02		-6.812935E+02
5.368277E+02		3.105446E+01		-5.678821E+02
-1.099537E+01		6.862192E+02		-6.752238E+02
5.732534E+02		-4.519033E+02		-1.213500E+02
6.000274E+02		1.300105E+02		-7.300379E+02
4.510508E+02		-4.476213E+02		-3.429463E+00
6.754350E+02		-2.050883E+00		-6.733841E+02
-4.241060E+02		1.140709E+01		4.126989E+02
8.433242E+01		-3.092631E+02		2.249306E+02
-4.301146E+02		2.228943E+02		2.072203E+02
-5.447495E+02		1.704255E+02		3.743240E+02
5.486940E+01		-1.400196E+02		8.515019E+01
1.449434E+02		6.119450E+02		-7.568884E+02
5.463147E+02		-4.596003E+02		-8.671443E+01
3.625102E+02		-4.008094E+02		3.829916E+01
-5.450489E+02		1.316910E+02		4.133580E+02
5.949200E+02		-4.389272E+02		-1.559928E+02
3.743131E+01		4.227753E+02		-4.602066E+02
8.947207E+01		4.487782E+02		-5.382503E+02
-5.068252E+02		1.829464E+02		3.238789E+02
-4.328171E+02		4.051765E+02		2.764056E+01
-3.755195E+02		5.775579E+02		-2.020384E+02
-1.772705E+02		2.339359E+02		-5.666540E+01
-2.493253E+02		8.942097E+02		-6.448844E+02
6.231781E+02		-3.483602E+02		-2.748179E+02
2.698330E+02		-2.034671E+02		-6.636583E+01
-3.056226E+02		1.756701E+02		1.299525E+02
5.865351E+02		-1.473795E+02		-4.391556E+02
-5.295404E+02		1.776631E+02		3.518773E+02
1.563358E+02		-1.068828E+02		-4.945301E+01
1.415086E+02		6.417773E+02		-7.832859E+02
6.225950E+02		-4.034385E+02		-2.191565E+02
-5.393417E+02		-1.896137E+02		7.289554E+02
-8.857451E+01		-1.172787E+02		2.058532E+02
-2.413757E+02		1.869611E+02		5.441463E+01
-2.390478E+02		1.633511E+02		7.569675E+01
7.788517E+02		-1.207166E+02		-6.581350E+02
2.413192E+02		-3.506788E+02		1.093596E+02
3.138843E+02		-3.623850E+02		4.850072E+01
-5.453177E+02		1.512644E+02		3.940533E+02
LINES 256 768
2		0		29
2		1		231
2		2		73
2		3		222
2		4		207
2		5		94
2		6		127
2		7		249
2		8		50
2		9		135
2		10		162
2		11		85
2		12		59
2		13		101
2		14		155
2		15		243
2		16		209
2		17		149
2		18		181
2		19		221
2		20		131
2		21		248
2		22		86
2		23		88
2		24		221
2		25		162
2		26		28
2		26		257
2		26		40
2		27		183
2		27		38
2		28		177
2		29		177
2		30		148
2		30		259
2		31		231
2		31		195
2		32		205
2		32		110
2		33		185
2		33		209
2		34		98
2		34		36
2		35		179
2		35		204
2		36		250
2		37		132
2		37		80
2		38		225
2		39		158
2		39		160
2		40		166
2		41		158
2		41		45
2		42		220
2		42		257
2		43		175
2		43		52
2		44		213
2		44		119
2		45		53
2		46		248
2		46		184
2		47		128
2		47		129
2		48		106
2		48		256
2		49		147
2		49		55
2		50		147
2		51		195
2		51		109
2		52		251
2		53		251
2		54		173
2		54		68
2		55		107
2		56		123
2		56		79
2		57		168
2		57		74
2		58		168
2		58		176
2		59		145
2		60		216
2		60		198
2		60		245
2		61		136
2		61		83
2		62		214
2		62		182
2		63		210
2		63		143
2		64		180
2		64		155
2		65		223
2		65		182
2		66		113
2		66		180
2		66		244
2		67		122
2		67		79
2		68		247
2		69		99
2		69		244
2		70		226
2		70		170
2		71		133
2		71		238
2		72		163
2		72		166
2		73		218
2		74		108
2		75		255
2		75		240
2		76		120
2		76		121
2		77		164
2		77		246
2		78		164
2		78		221
2		80		260
2		81		230
2		81		219
2		82		137
2		82		152
2		83		137
2		84		149
2		84		91
2		85		86
2		87		202
2		87		203
2		88		202
2		89		223
2		89		100
2		90		108
2		90		261
2		91		201
2		92		150
2		92		144
2		93		146
2		94		241
2		95		242
2		95		111
2		96		233
2		96		97
2		97		178
2		98		199
2		99		199
2		100		243
2		101		193
2		102		186
2		102		148
2		103		174
2		103		194
2		104		106
2		104		128
2		105		109
2		105		129
2		107		256
2		108		110
2		111		150
2		112		210
2		112		188
2		113		204
2		114		201
2		114		216
2		115		134
2		115		224
2		116		121
2		116		118
2		117		179
2		117		198
2		119		253
2		120		246
2		122		154
2		123		152
2		124		238
2		124		262
2		125		203
2		125		176
2		126		185
2		126		218
2		130		173
2		130		142
2		131		219
2		132		230
2		133		229
2		134		165
2		135		163
2		136		248
2		136		255
2		138		228
2		138		190
2		139		254
2		140		232
2		140		141
2		141		208
2		142		211
2		143		179
2		144		170
2		145		178
2		146		235
2		151		172
2		151		153
2		153		262
2		154		260
2		156		165
2		156		247
2		157		229
2		157		167
2		159		224
2		159		226
2		160		225
2		161		171
2		161		187
2		162		191
2		167		237
2		169		222
2		169		204
2		171		188
2		172		261
2		174		253
2		175		217
2		179		204
2		181		212
2		182		193
2		183		228
2		184		217
2		186		215
2		189		249
2		189		213
2		190		200
2		191		208
2		192		241
2		192		242
2		195		197
2		196		236
2		196		207
2		197		206
2		205		232
2		206		239
2		209		245
2		212		235
2		214		250
2		215		220
2		221		258
2		223		233
2		227		237
2		227		240
2		234		252
2		234		263
2		236		254
2		239		263
2		243		252
2		258		259
POINT_DATA 264
scalars NodeType integer
LOOKUP_TABLE default
7
7
7
7
7
7
7
7
7
7
7
7
7
7
7
7
7
7
7
7
7
7
7
7
7
7
0
0
0
0
0
0
0
0
0
0
0
0
0
0
0
0
0
0
0
0
0
0
0
0
0
0
0
0
0
0
0
0
0
0
0
0
0
0
0
0
0
0
0
0
0
0
0
0
0
0
0
0
0
0
0
0
0
0
0
0
0
0
0
0
0
0
0
9
0
0
0
0
0
0
0
0
0
0
0
0
0
0
0
0
0
0
0
0
0
0
0
0
9
0
0
0
0
0
0
0
0
9
0
0
0
0
0
0
0
0
0
0
0
8
0
0
0
0
0
0
0
0
0
0
0
0
0
0
0
0
0
0
0
0
0
0
0
0
0
0
0
0
0
0
0
0
0
0
0
0
0
0
0
0
0
0
0
0
0
0
0
8
0
0
0
0
0
0
9
0
0
0
0
0
8
0
0
0
0
0
0
0
0
0
0
8
0
0
0
0
0
0
0
0
0
0
0
0
0
0
0
0
0
0
0
0
0
0
0
0
0
0
0
0
0
0
0
0
0
0
0
0
0
0
0
0
0
0
0
0
0
0
0
0
0
0
0
0
CELL_DATA 256
SCALARS SlipSystem integer
LOOKUP_TABLE default
3
3
3
3
1
1
1
1
2
2
2
2
2
2
2
2
1
1
3
3
2
2
2
2
1
1
3
1
2
1
1
3
3
1
1
3
3
3
3
3
3
3
3
3
3
3
2
2
1
1
1
2
1
1
1
1
1
1
1
1
1
1
1
2
2
2
2
2
2
2
2
2
1
1
1
1
2
2
2
2
2
2
2
2
1
3
2
2
2
3
3
1
1
2
2
1
1
1
2
3
2
2
1
3
3
1
1
1
1
2
2
3
2
1
1
3
3
3
3
3
3
2
2
2
2
2
2
1
1
2
2
2
2
3
3
1
1
1
1
1
3
1
1
1
2
2
2
3
3
3
2
1
1
1
1
2
2
2
2
2
3
1
1
1
1
1
1
1
1
3
3
3
3
1
3
2
2
1
1
2
2
3
3
1
1
2
2
1
1
2
3
1
1
1
1
3
3
3
1
1
1
2
3
1
1
1
2
1
1
1
1
1
1
1
1
1
3
1
3
3
1
1
1
1
1
3
2
1
1
1
1
1
1
3
1
1
1
1
1
1
3
1
2
3
3
1
1
2
1
1
1
1
1
1
1
1
