# vtk DataFile Version 1.0
dislocation microstructure
ASCII
DATASET POLYDATA
POINTS 302 float
-1.407136E+02		-2.213016E+02		3.620151E+02
-4.069171E+02		1.959506E+01		3.873221E+02
-2.678171E+02		5.735064E+02		-3.056893E+02
-3.585793E+02		4.159045E+02		-5.732522E+01
2.435975E+02		5.088909E+02		-7.524885E+02
-3.645297E+01		4.790810E+02		-4.426281E+02
1.137360E+01		4.804267E+01		-5.941627E+01
2.977420E+02		-2.208350E+02		-7.690702E+01
-3.705953E+02		-3.364613E+02		7.070566E+02
-2.633774E+02		-5.962946E+01		3.230069E+02
-5.059046E+01		-1.177741E+02		1.683646E+02
-3.709113E+00		-3.770962E+02		3.808053E+02
-5.645235E+02		3.793574E+02		1.851661E+02
-3.703694E+02		9.044315E+01		2.799262E+02
-5.304416E+02		4.354699E+02		9.497178E+01
-5.136564E+02		1.737037E+02		3.399526E+02
-4.002894E+02		6.227393E+02		-2.224499E+02
-1.296146E+02		4.379697E+02		-3.083551E+02
3.132033E+01		-1.863970E+02		1.550767E+02
-2.594066E+02		2.052232E+02		5.418340E+01
5.559540E+02		2.224913E+01		-5.782031E+02
6.021915E+02		-3.324134E+02		-2.697781E+02
-9.943729E+01		-2.899623E+02		3.893996E+02
3.188077E+01		-5.505567E+02		5.186760E+02
-2.457631E+02		2.346175E+02		1.114560E+01
-1.949524E+01		-1.452330E+02		1.647282E+02
-1.584000E+02		-2.269749E+02		3.853748E+02
9.801931E+02		-3.849044E+02		-5.952887E+02
-4.253219E+02		-7.258196E+01		4.979038E+02
-2.850099E+02		6.230198E+02		-3.380098E+02
-1.006164E+02		2.471259E+02		-1.465095E+02
-4.057399E+02		-4.687396E+01		4.526139E+02
8.144867E+01		-4.670681E+02		3.856194E+02
-4.511063E+02		6.971953E+02		-2.460890E+02
-3.712834E+02		3.298338E+02		4.144954E+01
8.306308E+02		-4.640534E+02		-3.665775E+02
-3.312217E+02		2.873590E+02		4.386270E+01
-2.641040E+02		2.299816E+02		3.412236E+01
4.358896E+02		-1.261234E+02		-3.097662E+02
-7.953966E+02		1.353969E+02		6.599997E+02
-3.983158E+02		7.445761E+02		-3.462604E+02
7.834892E+02		-4.347262E+01		-7.400166E+02
3.046293E+01		-1.978940E+02		1.674311E+02
9.292430E+02		-3.154200E+02		-6.138231E+02
3.912449E+02		-5.233916E+01		-3.389057E+02
3.803154E+02		1.679188E+02		-5.482342E+02
8.389429E+02		-9.021844E+01		-7.487244E+02
-5.656294E+02		-7.786925E+01		6.434987E+02
-7.154826E+02		-7.704707E+01		7.925297E+02
-4.224958E+02		-3.940009E+02		8.164967E+02
-3.827484E+02		-3.704384E+02		7.531868E+02
-5.228261E+02		2.594671E+02		2.633590E+02
9.190044E+02		-2.543862E+02		-6.646183E+02
8.970383E+02		-1.749476E+02		-7.220907E+02
3.690262E+02		4.474704E+02		-8.164967E+02
1.008792E+02		-6.116478E+02		5.107687E+02
9.733703E+02		-4.084779E+02		-5.648925E+02
1.597027E+02		-5.554292E+02		3.957265E+02
4.716936E+02		-2.669928E+02		-2.047008E+02
-4.650301E+02		4.054904E+02		5.953967E+01
-4.627723E+02		6.316046E+02		-1.688323E+02
-7.256479E+01		2.742761E+02		-2.017113E+02
1.771984E+00		4.908488E+02		-4.926208E+02
8.532299E+02		-4.653024E+02		-3.879275E+02
-4.464968E+02		-8.477472E+01		5.312715E+02
4.193624E+02		2.244317E+02		-6.437941E+02
3.122470E+02		4.341729E+01		-3.556643E+02
9.864253E+02		-3.057999E+02		-6.806254E+02
2.602212E+02		5.276530E+02		-7.878742E+02
4.184233E+01		-2.817480E+02		2.399057E+02
4.309236E+02		3.150976E+02		-7.460212E+02
4.316537E+02		-7.588860E+02		3.272323E+02
-2.032505E+02		-1.955246E+02		3.987751E+02
4.700594E+02		-2.213538E+02		-2.487056E+02
-1.303408E+01		5.483044E+02		-5.352703E+02
-2.646624E+02		-1.220188E+02		3.866813E+02
-4.252126E+01		2.176405E+02		-1.751192E+02
-2.600862E+02		3.095879E+02		-4.950172E+01
9.240849E+02		-4.374616E+02		-4.866234E+02
9.846001E+02		-3.598722E+02		-6.247279E+02
-2.910294E+02		1.027944E+02		1.882350E+02
3.849856E+02		-3.077260E+02		-7.725964E+01
3.777940E+01		-3.043768E+02		2.665974E+02
1.247920E+01		-3.647948E+02		3.523156E+02
-6.508935E+01		6.238551E+02		-5.587657E+02
-7.527690E+00		-3.679875E+02		3.755152E+02
3.234178E+01		-3.244329E+02		2.920911E+02
1.753624E+02		-6.320531E+02		4.566907E+02
6.868806E+01		-5.923847E+02		5.236967E+02
-5.658072E+02		3.299585E+02		2.358487E+02
1.813575E+02		-5.890039E+02		4.076464E+02
-1.945351E+02		7.331221E+02		-5.385869E+02
9.669670E+02		-2.042021E+02		-7.627648E+02
8.868248E+02		-1.478672E+02		-7.389576E+02
-1.246235E+02		3.368668E+02		-2.122433E+02
4.300082E+02		2.602574E+02		-6.902657E+02
8.076681E+02		-6.273356E+01		-7.449346E+02
-5.355252E+01		2.079763E+02		-1.544238E+02
-6.664095E+02		-4.544960E+01		7.118591E+02
9.835590E+02		-2.753603E+02		-7.081988E+02
2.606216E+02		1.002764E+02		-3.608980E+02
8.046358E+02		-4.608048E+02		-3.438310E+02
-1.544611E+02		3.942203E+02		-2.397591E+02
-3.406038E+02		8.427477E+01		2.563290E+02
6.724734E+02		2.301910E+01		-6.954925E+02
2.574765E+01		-3.423246E+02		3.165770E+02
-4.729553E+01		-3.412587E+02		3.885542E+02
-4.059706E+02		3.608528E+02		4.511785E+01
-6.857810E+02		-5.438783E+01		7.401688E+02
-7.311011E+02		-8.539553E+01		8.164967E+02
1.431147E+02		-5.341560E+02		3.910413E+02
-7.764935E+02		9.956628E+01		6.769273E+02
1.116814E+02		-4.987422E+02		3.870608E+02
4.218024E+02		-9.994515E+01		-3.218572E+02
-7.811268E+02		4.406250E+02		3.405018E+02
4.428782E+01		-1.889358E+02		1.446480E+02
-3.963556E+02		7.664177E+02		-3.700621E+02
6.248754E+01		-1.741657E+02		1.116781E+02
-3.433206E+01		8.132195E+01		-4.698989E+01
-4.593031E+02		5.532367E+02		-9.393366E+01
-3.409816E+01		1.909825E+02		-1.568844E+02
3.404023E+02		1.227911E+01		-3.526814E+02
-1.460543E+02		3.139367E+02		-1.678824E+02
4.324386E+02		2.867487E+02		-7.191873E+02
9.777273E+02		-2.429804E+02		-7.347469E+02
9.498672E+02		-4.515434E+02		-4.983238E+02
3.746013E+02		-7.361172E+02		3.615160E+02
-3.972014E+02		-3.808466E+02		7.780479E+02
2.878205E+02		5.187337E+02		-8.065542E+02
3.749755E+00		6.876119E+01		-7.251095E+01
-3.199703E+02		6.733808E+02		-3.534105E+02
4.719692E+02		-2.445610E+02		-2.274082E+02
3.272366E+02		-2.702957E+02		-5.694088E+01
6.458411E+02		-3.945734E+02		-2.512677E+02
-1.299610E+02		2.671170E+02		-1.371560E+02
4.764399E+02		-7.743693E+02		2.979294E+02
9.635324E+02		-4.309868E+02		-5.325456E+02
-2.736821E+02		-8.995991E+01		3.636420E+02
3.050474E+02		1.272485E+02		-4.322959E+02
-7.644432E+01		2.277519E+02		-1.513076E+02
-6.970697E+02		-8.651433E+00		7.057211E+02
-6.508548E+02		-4.779747E+01		6.986523E+02
-7.994392E+01		-3.100927E+02		3.900366E+02
-8.121679E+02		1.739016E+02		6.382662E+02
3.290394E+02		1.351607E+02		-4.642001E+02
-1.442020E+00		-1.694892E+02		1.709312E+02
-9.412892E+01		6.545581E+02		-5.604291E+02
-2.261890E+02		7.511051E+02		-5.249161E+02
7.177694E+01		-1.143245E+02		4.254753E+01
-4.126811E+02		-3.896475E+02		8.023286E+02
9.249761E+02		-2.851171E+02		-6.398591E+02
5.722756E+02		3.603150E+01		-6.083071E+02
-2.705444E+02		1.612851E+02		1.092593E+02
-4.223893E+02		6.432636E+02		-2.208743E+02
-2.375997E+01		1.373566E+02		-1.135966E+02
9.487354E+02		-1.608829E+02		-7.878525E+02
4.176146E+02		-3.148598E+02		-1.027549E+02
7.099850E+02		-4.327612E+02		-2.772238E+02
-8.117015E+02		3.852919E+02		4.264096E+02
-7.033683E+02		-6.862625E+01		7.719945E+02
9.317889E+02		-3.508288E+02		-5.809601E+02
-8.651868E+02		5.339242E+02		3.312626E+02
-3.085684E+02		2.569374E+02		5.163105E+01
-2.434946E+02		-1.546509E+02		3.981455E+02
-2.687904E+02		2.748793E+02		-6.088934E+00
9.866757E+02		-3.335790E+02		-6.530966E+02
-1.684102E+02		-2.212869E+02		3.896972E+02
5.943883E+02		-8.198254E+02		2.254372E+02
6.376174E+02		3.466169E+01		-6.722791E+02
-4.104411E+02		4.527893E+02		-4.234815E+01
-7.946964E+02		4.030078E+02		3.916886E+02
-8.342788E+02		5.023965E+02		3.318823E+02
-4.262624E+02		7.106776E+02		-2.844152E+02
-1.413597E+02		3.645567E+02		-2.231970E+02
-5.118470E+02		2.341293E+02		2.777177E+02
9.309487E+02		-3.871889E+02		-5.437599E+02
2.016242E+02		-6.308457E+02		4.292215E+02
8.737228E+02		-1.270564E+02		-7.466664E+02
2.804536E+02		1.217392E+02		-4.021928E+02
-4.063601E+02		7.253197E+02		-3.189596E+02
-4.459836E+02		5.120651E+02		-6.608151E+01
5.891576E+01		-1.973987E+02		1.384829E+02
-2.791864E+02		1.185908E+02		1.605956E+02
-3.603261E+02		7.115284E+02		-3.512022E+02
-8.372415E+02		2.757699E+02		5.614716E+02
-4.318582E+02		7.379572E+02		-3.060990E+02
-6.739326E+02		-3.084475E+01		7.047774E+02
-8.727209E+02		5.414928E+02		3.312280E+02
-7.969916E+02		4.622313E+02		3.347603E+02
4.482436E+02		-1.520326E+02		-2.962109E+02
9.548142E+02		-1.383175E+02		-8.164967E+02
3.978362E+01		-2.234009E+02		1.836172E+02
-3.072613E+02		9.147650E+01		2.157848E+02
-1.140375E+02		2.936543E+02		-1.796168E+02
-4.721415E+02		-9.087836E+01		5.630199E+02
3.117442E+02		5.047525E+02		-8.164967E+02
-6.062880E+02		-6.445779E+01		6.707458E+02
-4.647312E+02		5.911384E+02		-1.264071E+02
-4.938664E+02		4.223288E+02		7.153761E+01
-2.737246E+02		5.974046E+02		-3.236800E+02
-4.455081E+02		7.200013E+02		-2.744932E+02
1.301420E+02		-6.235585E+02		4.934166E+02
-2.723377E+02		1.378063E+02		1.345313E+02
-1.954027E+01		-1.451567E+02		1.646970E+02
4.880209E+01		-4.304094E+02		3.816074E+02
-7.547456E+02		6.438618E+01		6.903594E+02
4.064089E+02		3.935088E+02		-7.999177E+02
-6.237267E+01		2.439123E+02		-1.815396E+02
-4.463802E+02		6.754899E+02		-2.291096E+02
9.431858E+02		-4.710279E+02		-4.721579E+02
7.855557E+01		-1.797623E+02		1.012067E+02
5.032235E+02		-7.829436E+02		2.797200E+02
-2.907798E+02		2.264564E+02		6.432341E+01
-4.371565E+02		3.857889E+02		5.136761E+01
-8.410525E+01		2.677533E+02		-1.836480E+02
-3.072012E+02		7.819711E+02		-4.747699E+02
6.135942E+02		-3.626923E+02		-2.509018E+02
4.281565E+01		-8.161675E+01		3.880111E+01
-2.630108E+02		2.578010E+02		5.209830E+00
-3.832402E+02		4.263603E+02		-4.312013E+01
1.266425E+02		-5.151155E+02		3.884730E+02
2.594763E+02		1.175111E+02		-3.769874E+02
6.713084E+01		-1.358204E+02		6.868961E+01
-2.503064E+02		2.860975E+02		-3.579110E+01
-4.307062E+02		4.818892E+02		-5.118302E+01
4.079287E+02		2.017726E+02		-6.097013E+02
4.226894E+02		3.531260E+02		-7.758154E+02
5.293971E+02		-7.910930E+02		2.616958E+02
9.269919E+02		-4.642141E+02		-4.627778E+02
-3.995879E+02		-1.227195E+01		4.118599E+02
1.666831E+01		-3.831028E+02		3.664345E+02
8.840208E+02		-4.645045E+02		-4.195163E+02
-2.890895E+01		1.661750E+02		-1.372660E+02
8.207687E+01		-1.526314E+02		7.055450E+01
-1.247815E+02		6.824282E+02		-5.576468E+02
3.998306E+02		-7.466299E+02		3.467993E+02
-8.253947E+02		2.133081E+02		6.120866E+02
-1.584186E+02		7.088689E+02		-5.504504E+02
3.934289E+02		1.815350E+02		-5.749639E+02
-5.038933E+02		2.093760E+02		2.945173E+02
-8.988468E+01		-3.016797E+02		3.915644E+02
-4.361322E+02		6.898319E+02		-2.536997E+02
-2.166377E+02		3.313864E+02		-1.147487E+02
7.532256E+02		-4.488530E+02		-3.043726E+02
4.461777E+02		-3.091855E+02		-1.369922E+02
6.071193E+02		3.975262E+01		-6.468719E+02
9.089838E+02		-2.142342E+02		-6.947497E+02
-1.316262E+02		-2.689794E+02		4.006056E+02
2.836097E+02		7.373420E+01		-3.573439E+02
-7.788555E+02		4.165312E+02		3.623242E+02
7.468038E+02		-1.734302E+01		-7.294608E+02
-5.514727E+02		3.033288E+02		2.481439E+02
-2.158639E+02		2.979807E+02		-8.211677E+01
-1.589970E+02		2.826074E+02		-1.236104E+02
2.393521E+02		-6.624184E+02		4.230662E+02
3.342530E+02		-7.176815E+02		3.834285E+02
-8.321827E+02		3.435240E+02		4.886587E+02
-5.357552E+02		-8.559115E+01		6.213464E+02
-3.717175E+02		7.812774E+02		-4.095598E+02
5.617682E+02		-8.018155E+02		2.400473E+02
-2.602782E+02		7.670137E+02		-5.067355E+02
9.059447E+02		-1.337322E+02		-7.722125E+02
3.659547E+02		1.556844E+02		-5.216390E+02
6.783815E+02		-4.165240E+02		-2.618575E+02
-5.051382E+02		-9.063506E+01		5.957732E+02
4.350974E+01		-2.553763E+02		2.118665E+02
7.186297E+02		-2.601629E-03		-7.186271E+02
9.198830E+02		-4.598694E+02		-4.600136E+02
-3.802279E+01		2.406719E+02		-2.026491E+02
-1.024633E+02		3.072797E+02		-2.048164E+02
-7.293615E+02		2.907249E+01		7.002890E+02
-1.506109E+01		2.069338E+02		-1.918728E+02
-3.695015E+01		5.880937E+02		-5.511436E+02
-3.006495E+02		6.486499E+02		-3.480004E+02
-1.837581E+02		3.284239E+02		-1.446659E+02
-2.766320E+02		1.931779E+02		8.345406E+01
-8.377185E+02		3.102378E+02		5.274806E+02
2.960279E+02		-6.978803E+02		4.018525E+02
7.801609E+02		-4.560201E+02		-3.241408E+02
3.659889E+02		-1.856423E+01		-3.474246E+02
-4.576458E+02		6.547895E+02		-1.971437E+02
9.278702E+02		-4.128903E+02		-5.149799E+02
-2.410162E+02		3.250788E+02		-8.406262E+01
-8.329155E+02		2.449223E+02		5.879931E+02
4.613549E+02		-1.863311E+02		-2.750238E+02
5.599341E+01		-1.071432E+02		5.114975E+01
-3.434199E+02		7.858789E+02		-4.424590E+02
2.680275E+02		-6.814464E+02		4.134189E+02
-1.579961E+02		4.333581E+02		-2.753620E+02
-8.236737E+02		3.658467E+02		4.578270E+02
3.873493E+02		4.258793E+02		-8.132286E+02
-5.619586E+02		3.548222E+02		2.071364E+02
3.481915E+02		1.443195E+02		-4.925110E+02
-1.527923E+00		5.188638E+02		-5.173359E+02
-3.947200E+02		7.384544E+02		-3.437344E+02
-1.081254E+01		4.731310E+02		-4.623184E+02
4.634713E+02		-2.917658E+02		-1.717055E+02
3.542077E+02		-2.918468E+02		-6.236093E+01
3.060015E+02		-2.447302E+02		-6.127130E+01
9.300031E+02		-1.383250E+02		-7.916781E+02
-1.870106E+02		2.930677E+02		-1.060572E+02
-2.273685E+01		1.151062E+02		-9.236937E+01
LINES 294 882
2		0		26
2		1		229
2		2		199
2		3		219
2		4		68
2		5		295
2		6		129
2		7		298
2		8		50
2		9		137
2		10		203
2		11		85
2		12		291
2		13		103
2		14		198
2		15		239
2		16		153
2		17		288
2		18		181
2		19		37
2		20		151
2		21		216
2		22		142
2		23		88
2		24		218
2		25		203
2		26		166
2		26		247
2		27		79
2		27		56
2		28		31
2		28		64
2		29		199
2		29		273
2		30		134
2		30		139
2		31		229
2		32		204
2		32		112
2		33		208
2		33		200
2		34		36
2		34		107
2		35		101
2		35		63
2		36		162
2		37		218
2		38		189
2		38		113
2		39		143
2		39		111
2		40		185
2		40		294
2		41		250
2		41		96
2		42		191
2		42		115
2		42		145
2		43		160
2		43		150
2		44		113
2		44		279
2		45		262
2		45		238
2		46		96
2		46		177
2		47		196
2		47		257
2		48		159
2		48		109
2		49		149
2		50		127
2		51		251
2		51		174
2		52		150
2		52		246
2		53		246
2		53		93
2		54		290
2		55		201
2		55		88
2		56		136
2		57		90
2		57		110
2		58		296
2		58		131
2		59		213
2		59		198
2		60		197
2		60		280
2		61		268
2		61		269
2		62		293
2		62		295
2		63		231
2		64		194
2		65		95
2		65		225
2		66		248
2		66		121
2		67		99
2		67		165
2		68		128
2		69		265
2		69		82
2		70		226
2		70		123
2		71		135
2		71		235
2		72		163
2		72		166
2		73		131
2		73		284
2		74		293
2		74		272
2		75		163
2		75		137
2		76		120
2		76		207
2		77		164
2		77		282
2		78		267
2		78		281
2		79		165
2		80		192
2		80		182
2		81		297
2		81		156
2		82		86
2		83		85
2		83		230
2		83		105
2		84		272
2		84		146
2		85		106
2		86		105
2		87		201
2		87		176
2		89		251
2		89		291
2		90		176
2		91		237
2		91		147
2		92		155
2		92		124
2		93		177
2		94		269
2		94		173
2		95		123
2		97		139
2		97		120
2		98		108
2		98		141
2		99		124
2		100		248
2		100		221
2		101		278
2		102		288
2		102		173
2		103		192
2		104		266
2		104		168
2		106		142
2		107		213
2		108		159
2		110		220
2		111		205
2		112		220
2		114		188
2		114		249
2		115		117
2		116		258
2		116		294
2		117		222
2		118		301
2		119		197
2		119		180
2		120		232
2		120		271
2		121		279
2		122		274
2		122		193
2		125		136
2		125		228
2		126		235
2		126		255
2		127		149
2		128		195
2		130		273
2		130		183
2		132		297
2		132		298
2		133		216
2		133		263
2		134		253
2		135		211
2		138		178
2		138		144
2		140		270
2		140		186
2		141		196
2		141		186
2		142		240
2		143		236
2		144		292
2		145		203
2		146		234
2		147		260
2		148		233
2		148		217
2		151		245
2		152		275
2		152		202
2		153		208
2		154		301
2		154		232
2		155		299
2		156		244
2		157		263
2		157		243
2		158		170
2		158		289
2		160		175
2		161		171
2		161		187
2		162		212
2		164		218
2		167		259
2		168		245
2		169		219
2		169		224
2		170		249
2		171		188
2		172		241
2		172		179
2		174		239
2		175		281
2		176		254
2		177		261
2		178		221
2		179		294
2		180		224
2		181		210
2		182		202
2		183		294
2		184		276
2		184		283
2		185		200
2		189		284
2		190		299
2		191		265
2		193		214
2		194		264
2		204		230
2		205		270
2		206		226
2		206		290
2		207		214
2		208		241
2		208		280
2		209		267
2		210		233
2		211		227
2		212		275
2		215		260
2		215		286
2		217		285
2		218		223
2		222		285
2		223		252
2		225		238
2		227		259
2		228		267
2		231		267
2		234		237
2		236		283
2		240		247
2		242		274
2		242		282
2		243		278
2		244		296
2		250		266
2		252		300
2		253		300
2		254		287
2		255		277
2		256		276
2		256		289
2		257		264
2		258		286
2		261		299
2		262		292
2		268		271
2		277		287
POINT_DATA 302
scalars NodeType integer
LOOKUP_TABLE default
7
7
7
7
7
7
7
7
7
7
7
7
7
7
7
7
7
7
7
7
7
7
7
7
7
7
0
0
0
0
0
0
0
0
0
0
0
0
0
0
0
0
0
0
0
0
0
0
0
8
0
0
0
0
8
0
0
0
0
0
0
0
0
0
0
0
0
0
0
0
0
0
0
0
0
0
0
0
0
0
0
0
0
0
0
0
0
0
0
0
0
0
0
0
0
0
0
0
0
0
0
0
0
0
0
0
0
0
0
8
0
0
0
0
0
0
0
0
9
0
0
0
0
0
0
0
0
0
0
9
0
0
0
0
0
0
0
0
0
0
0
0
0
0
0
0
0
0
0
0
0
0
0
0
0
0
0
0
0
0
0
0
0
0
0
0
0
8
0
0
0
0
0
0
0
0
0
0
0
0
0
0
0
0
0
0
0
8
0
0
8
0
0
0
0
8
0
0
0
0
0
0
0
0
0
0
0
0
0
8
0
0
0
0
0
0
0
9
0
0
0
0
0
0
0
0
0
0
0
0
0
0
0
0
0
0
0
0
0
0
0
0
0
0
0
0
0
0
0
0
0
0
0
0
0
0
0
0
0
0
0
0
0
0
0
0
0
0
0
0
0
0
0
0
0
0
0
0
0
0
0
0
0
0
0
0
0
0
0
0
0
0
0
0
0
0
0
0
0
0
0
0
CELL_DATA 294
SCALARS SlipSystem integer
LOOKUP_TABLE default
3
3
3
3
1
1
1
1
2
2
2
2
2
2
2
2
1
1
3
3
2
2
2
2
1
1
2
1
2
2
3
3
3
3
1
1
3
3
3
3
3
2
2
2
2
2
3
1
1
1
1
3
3
2
2
2
1
3
1
1
1
1
1
1
2
2
3
3
2
2
2
2
2
2
1
1
1
1
1
2
2
2
3
3
1
1
2
2
3
3
1
1
1
1
2
3
1
1
1
1
2
2
1
2
2
1
1
1
1
2
2
1
1
1
1
2
2
3
3
3
3
1
1
2
2
2
1
1
2
1
3
2
1
1
3
2
2
2
2
2
3
1
1
2
2
1
1
1
1
1
1
2
2
2
1
1
2
1
1
2
2
2
3
2
2
3
1
3
1
1
1
1
1
1
3
3
3
3
1
1
3
3
2
2
1
1
2
1
3
3
1
1
2
2
1
1
1
1
1
1
3
1
1
1
1
3
1
1
3
3
2
2
2
1
3
3
2
1
2
2
1
1
1
1
1
2
3
1
2
3
3
1
1
1
1
2
1
1
3
1
1
3
3
2
3
1
1
3
1
1
2
3
3
3
1
1
1
3
1
3
1
3
1
2
1
1
1
1
1
1
1
1
2
2
1
1
1
3
3
2
1
2
1
1
1
1
1
1
3
1
3
1
1
1
