# vtk DataFile Version 1.0
dislocation microstructure
ASCII
DATASET POLYDATA
POINTS 298 float
-1.407136E+02		-2.213016E+02		3.620151E+02
-4.069171E+02		1.959506E+01		3.873221E+02
-2.678171E+02		5.735064E+02		-3.056893E+02
-3.585793E+02		4.159045E+02		-5.732522E+01
2.435975E+02		5.088909E+02		-7.524885E+02
-3.645297E+01		4.790810E+02		-4.426281E+02
1.137360E+01		4.804267E+01		-5.941627E+01
2.977420E+02		-2.208350E+02		-7.690702E+01
-3.705953E+02		-3.364613E+02		7.070566E+02
-2.633774E+02		-5.962946E+01		3.230069E+02
-5.059046E+01		-1.177741E+02		1.683646E+02
-3.709113E+00		-3.770962E+02		3.808053E+02
-5.645235E+02		3.793574E+02		1.851661E+02
-3.703694E+02		9.044315E+01		2.799262E+02
-5.304416E+02		4.354699E+02		9.497178E+01
-5.136564E+02		1.737037E+02		3.399526E+02
-4.002894E+02		6.227393E+02		-2.224499E+02
-1.296146E+02		4.379697E+02		-3.083551E+02
3.132033E+01		-1.863970E+02		1.550767E+02
-2.594066E+02		2.052232E+02		5.418340E+01
5.559540E+02		2.224913E+01		-5.782031E+02
6.021915E+02		-3.324134E+02		-2.697781E+02
-9.943729E+01		-2.899623E+02		3.893996E+02
3.188077E+01		-5.505567E+02		5.186760E+02
-2.457631E+02		2.346175E+02		1.114560E+01
-1.949524E+01		-1.452330E+02		1.647282E+02
-1.617013E+02		-2.275731E+02		3.892744E+02
9.897563E+02		-3.911736E+02		-5.985827E+02
-4.221092E+02		-7.580306E+01		4.979122E+02
-2.840259E+02		6.230505E+02		-3.390246E+02
-9.761350E+01		2.565705E+02		-1.589570E+02
-4.034144E+02		-4.865550E+01		4.520699E+02
7.639268E+01		-4.707321E+02		3.943394E+02
-4.563690E+02		6.996724E+02		-2.433034E+02
-3.678640E+02		3.334069E+02		3.445706E+01
8.328998E+02		-4.693556E+02		-3.635442E+02
-3.270425E+02		2.899994E+02		3.704311E+01
-2.647330E+02		2.304202E+02		3.431275E+01
4.484175E+02		-1.260188E+02		-3.223988E+02
-8.083198E+02		1.357059E+02		6.726139E+02
-4.088590E+02		7.609600E+02		-3.521010E+02
7.851500E+02		-3.915505E+01		-7.459950E+02
3.503880E+01		-2.046269E+02		1.695881E+02
9.431230E+02		-3.212679E+02		-6.218551E+02
4.022618E+02		-4.915304E+01		-3.531087E+02
3.945216E+02		1.534422E+02		-5.479638E+02
8.417802E+02		-8.707658E+01		-7.547036E+02
-5.638532E+02		-8.523575E+01		6.490890E+02
-7.234505E+02		-6.742761E+01		7.908781E+02
-4.177330E+02		-3.987637E+02		8.164967E+02
-3.794243E+02		-3.728510E+02		7.522753E+02
-5.181480E+02		2.598506E+02		2.582974E+02
9.331366E+02		-2.588011E+02		-6.743355E+02
9.108681E+02		-1.775211E+02		-7.333471E+02
9.064283E+02		-4.660646E+02		-4.403637E+02
1.008247E+02		-6.134444E+02		5.126197E+02
9.826920E+02		-4.153073E+02		-5.673847E+02
1.502665E+02		-5.581144E+02		4.078479E+02
4.855416E+02		-2.757434E+02		-2.097982E+02
-4.643629E+02		4.091587E+02		5.520426E+01
-4.674278E+02		6.342566E+02		-1.668288E+02
-2.868316E+02		7.884759E+02		-5.016443E+02
1.051521E+01		4.849371E+02		-4.954523E+02
8.558174E+02		-4.704843E+02		-3.853331E+02
-4.431357E+02		-8.923663E+01		5.323724E+02
4.347440E+02		2.128462E+02		-6.475902E+02
3.238557E+02		5.091396E+01		-3.747696E+02
9.959824E+02		-3.101765E+02		-6.858060E+02
2.550444E+02		5.340827E+02		-7.891270E+02
4.844488E+01		-2.855331E+02		2.370883E+02
4.452582E+02		3.097705E+02		-7.550287E+02
4.342676E+02		-7.747703E+02		3.405026E+02
-2.049533E+02		-1.978934E+02		4.028467E+02
4.839594E+02		-2.261585E+02		-2.578010E+02
-3.478296E+00		5.483801E+02		-5.449018E+02
-2.676926E+02		-1.218705E+02		3.895631E+02
-4.686138E+01		2.177577E+02		-1.708963E+02
-2.641271E+02		3.126959E+02		-4.856874E+01
9.380467E+02		-4.461749E+02		-4.918718E+02
9.942361E+02		-3.655440E+02		-6.286920E+02
-2.884928E+02		1.002097E+02		1.882831E+02
3.863721E+02		-3.166868E+02		-6.968527E+01
4.484431E+01		-3.089242E+02		2.640799E+02
1.599933E+01		-3.770011E+02		3.610018E+02
-5.743993E+01		6.285537E+02		-5.711138E+02
-3.818126E+00		-3.772964E+02		3.811145E+02
3.965158E+01		-3.295421E+02		2.898906E+02
1.761327E+02		-6.342347E+02		4.581020E+02
6.760417E+01		-5.930289E+02		5.254247E+02
-5.539637E+02		3.262910E+02		2.276727E+02
1.702132E+02		-5.898024E+02		4.195892E+02
-1.925523E+02		7.439725E+02		-5.514202E+02
9.754958E+02		-2.056078E+02		-7.698880E+02
8.978799E+02		-1.473523E+02		-7.505276E+02
-1.389362E+02		3.345003E+02		-1.955641E+02
4.452869E+02		2.508440E+02		-6.961310E+02
8.099741E+02		-5.889291E+01		-7.510812E+02
8.629252E+02		-1.084995E+02		-7.544256E+02
-6.747066E+02		-4.408726E+01		7.187938E+02
9.929794E+02		-2.790098E+02		-7.139696E+02
-2.381527E+02		2.990103E+02		-6.085762E+01
8.065962E+02		-4.660986E+02		-3.404977E+02
-1.656706E+02		3.971389E+02		-2.314683E+02
-3.400178E+02		8.323247E+01		2.567853E+02
6.720921E+02		2.714184E+01		-6.992340E+02
3.321080E+01		-3.483035E+02		3.150927E+02
-4.999898E+01		-3.462424E+02		3.962413E+02
-4.034970E+02		3.650009E+02		3.849617E+01
-6.909497E+02		-4.842680E+01		7.393765E+02
-7.406449E+02		-7.585176E+01		8.164967E+02
1.353336E+02		-5.380539E+02		4.027203E+02
-7.884119E+02		9.831237E+01		6.900995E+02
1.059413E+02		-5.031835E+02		3.972422E+02
4.334407E+02		-9.836327E+01		-3.350775E+02
4.182520E+02		-7.371279E+01		-3.445392E+02
4.897422E+01		-1.943935E+02		1.454192E+02
-4.214480E+02		7.548711E+02		-3.334231E+02
6.460650E+01		-1.753725E+02		1.107660E+02
-3.410066E+01		8.129874E+01		-4.719808E+01
-4.626838E+02		5.542257E+02		-9.154189E+01
-3.878345E+01		2.024590E+02		-1.636756E+02
3.507569E+02		1.844175E+01		-3.691986E+02
-1.463452E+02		3.217248E+02		-1.753797E+02
4.475545E+02		2.790917E+02		-7.266463E+02
9.868876E+02		-2.457259E+02		-7.411617E+02
9.555846E+02		-4.586291E+02		-4.969556E+02
3.756510E+02		-7.509756E+02		3.753246E+02
-3.931868E+02		-3.853889E+02		7.785757E+02
3.757028E+00		6.875727E+01		-7.251429E+01
-3.189536E+02		6.743821E+02		-3.554286E+02
4.865112E+02		-2.514588E+02		-2.350524E+02
3.242378E+02		-2.732202E+02		-5.101763E+01
6.444766E+02		-3.967510E+02		-2.477256E+02
-1.288285E+02		2.760644E+02		-1.472358E+02
4.795778E+02		-7.908248E+02		3.112470E+02
9.721461E+02		-4.381779E+02		-5.339683E+02
-2.755038E+02		-8.896669E+01		3.644705E+02
3.176132E+02		1.095607E+02		-4.271739E+02
-7.143138E+01		2.378547E+02		-1.664233E+02
-7.051955E+02		-1.490054E+01		7.200960E+02
-6.509498E+02		-5.485756E+01		7.058073E+02
-8.753730E+01		-3.069846E+02		3.945219E+02
-8.259696E+02		1.758368E+02		6.501328E+02
3.414163E+02		1.188014E+02		-4.602177E+02
-2.396269E+00		-1.706256E+02		1.730218E+02
-8.778263E+01		6.611413E+02		-5.733587E+02
-2.259377E+02		7.630544E+02		-5.371167E+02
7.237972E+01		-1.133893E+02		4.100954E+01
-4.086066E+02		-3.946365E+02		8.032431E+02
-3.991584E+02		7.824009E+02		-3.832425E+02
9.390093E+02		-2.902525E+02		-6.487568E+02
5.712799E+02		3.745149E+01		-6.087314E+02
-2.655445E+02		1.590970E+02		1.064475E+02
-4.233746E+02		6.422934E+02		-2.189187E+02
-2.189958E+01		1.366128E+02		-1.147132E+02
9.543164E+02		-1.604161E+02		-7.939002E+02
4.230366E+02		-3.263428E+02		-9.669383E+01
7.103538E+02		-4.370000E+02		-2.733538E+02
4.405738E+02		2.314122E+02		-6.719860E+02
-8.270810E+02		3.991735E+02		4.279074E+02
-7.106975E+02		-6.027161E+01		7.709691E+02
9.454062E+02		-3.574286E+02		-5.879776E+02
-8.753257E+02		5.247178E+02		3.506078E+02
-3.037146E+02		2.580937E+02		4.562094E+01
-2.460976E+02		-1.561903E+02		4.022879E+02
-2.711421E+02		2.766190E+02		-5.476852E+00
9.963022E+02		-3.386252E+02		-6.576770E+02
-1.692770E+02		-2.235314E+02		3.928084E+02
5.792099E+02		-8.350038E+02		2.557939E+02
6.365815E+02		3.828883E+01		-6.748703E+02
-4.114435E+02		4.520991E+02		-4.065557E+01
-8.115142E+02		4.190618E+02		3.924524E+02
-8.459786E+02		4.935303E+02		3.524484E+02
-4.322483E+02		7.162341E+02		-2.839857E+02
-1.540240E+02		3.649019E+02		-2.108779E+02
-5.074065E+02		2.333370E+02		2.740695E+02
9.442814E+02		-3.944718E+02		-5.498096E+02
1.919174E+02		-6.345472E+02		4.426298E+02
8.842930E+02		-1.301361E+02		-7.541569E+02
2.999578E+02		1.025588E+02		-4.025165E+02
-4.134414E+02		7.329049E+02		-3.194636E+02
-4.485960E+02		5.124195E+02		-6.382354E+01
6.020975E+01		-1.983769E+02		1.381671E+02
-2.757340E+02		1.157452E+02		1.599888E+02
-3.595235E+02		7.126485E+02		-3.531251E+02
-8.526691E+02		2.825792E+02		5.700899E+02
-4.378733E+02		7.441703E+02		-3.062970E+02
-1.680700E+02		4.195974E+02		-2.515274E+02
-8.823713E+02		5.318424E+02		3.505289E+02
-8.157136E+02		4.562759E+02		3.594378E+02
4.612584E+02		-1.533593E+02		-3.078991E+02
9.680098E+02		-1.515131E+02		-8.164967E+02
4.386865E+01		-2.246810E+02		1.808123E+02
-3.057596E+02		8.929198E+01		2.164676E+02
-4.689444E+02		-9.641299E+01		5.653574E+02
2.879222E+02		5.285745E+02		-8.164967E+02
-6.049130E+02		-7.208892E+01		6.770019E+02
-4.687717E+02		5.930203E+02		-1.242486E+02
-4.941519E+02		4.249413E+02		6.921063E+01
-2.731368E+02		5.972801E+02		-3.241434E+02
-4.514415E+02		7.246137E+02		-2.731722E+02
1.308087E+02		-6.258000E+02		4.949913E+02
-2.680140E+02		1.350273E+02		1.329866E+02
-1.956354E+01		-1.452362E+02		1.647997E+02
4.392184E+01		-4.322607E+02		3.883389E+02
-7.655102E+02		6.160395E+01		7.039063E+02
4.166043E+02		3.934956E+02		-8.100999E+02
-4.513972E+02		6.799460E+02		-2.285488E+02
9.492741E+02		-4.649396E+02		-4.843345E+02
8.026206E+01		-1.814376E+02		1.011755E+02
5.067052E+02		-8.000756E+02		2.933705E+02
-2.859456E+02		2.264357E+02		5.950994E+01
-4.355515E+02		3.899253E+02		4.562619E+01
-8.357056E+01		2.673858E+02		-1.838152E+02
-3.117375E+02		7.957747E+02		-4.840372E+02
6.119426E+02		-3.631598E+02		-2.487828E+02
4.291782E+01		-8.161326E+01		3.869544E+01
-2.649049E+02		2.595801E+02		5.324757E+00
-3.834378E+02		4.257268E+02		-4.228902E+01
1.200055E+02		-5.193911E+02		3.993856E+02
6.876674E+01		-1.368579E+02		6.809118E+01
-2.537479E+02		2.898941E+02		-3.614623E+01
-4.325459E+02		4.816069E+02		-4.906103E+01
4.230637E+02		1.889760E+02		-6.120397E+02
4.355046E+02		3.504358E+02		-7.859404E+02
5.325267E+02		-8.093053E+02		2.767786E+02
-3.984344E+02		-1.285977E+01		4.112942E+02
1.542285E+01		-3.842706E+02		3.688477E+02
8.866172E+02		-4.691572E+02		-4.174600E+02
-2.683347E+01		1.655187E+02		-1.386852E+02
8.378345E+01		-1.532781E+02		6.949462E+01
-1.198109E+02		6.906260E+02		-5.708151E+02
4.017140E+02		-7.620154E+02		3.603015E+02
-8.399020E+02		2.168058E+02		6.230962E+02
-1.549349E+02		7.185077E+02		-5.635728E+02
4.081145E+02		1.678467E+02		-5.759612E+02
-5.018023E+02		2.080736E+02		2.937287E+02
-9.114852E+01		-3.042937E+02		3.954422E+02
-4.416634E+02		6.942511E+02		-2.525877E+02
-2.200269E+02		3.375912E+02		-1.175642E+02
7.541642E+02		-4.536966E+02		-3.004676E+02
4.558850E+02		-3.214784E+02		-1.344066E+02
6.056519E+02		4.261413E+01		-6.482660E+02
9.232212E+02		-2.179451E+02		-7.052761E+02
-1.339855E+02		-2.704764E+02		4.044619E+02
3.033408E+02		7.796117E+01		-3.813020E+02
-8.051952E+02		4.302502E+02		3.749449E+02
7.479116E+02		-1.293578E+01		-7.349758E+02
-5.442977E+02		3.040073E+02		2.402904E+02
-2.198646E+02		3.050309E+02		-8.516636E+01
-1.596517E+02		2.912680E+02		-1.316163E+02
2.348565E+02		-6.719848E+02		4.371283E+02
3.344177E+02		-7.318089E+02		3.973912E+02
-8.478442E+02		3.539313E+02		4.939129E+02
-5.334225E+02		-9.264464E+01		6.260671E+02
-3.820775E+02		7.951586E+02		-4.130811E+02
5.619477E+02		-8.223273E+02		2.603796E+02
-2.619027E+02		7.797575E+02		-5.178548E+02
9.082026E+02		-1.431509E+02		-7.650518E+02
3.795212E+02		1.406780E+02		-5.201992E+02
6.778738E+02		-4.199135E+02		-2.579602E+02
-5.022581E+02		-9.712311E+01		5.993812E+02
4.924990E+01		-2.580125E+02		2.087626E+02
7.188336E+02		4.595181E+00		-7.234288E+02
9.343819E+02		-4.598205E+02		-4.745614E+02
-5.867471E+01		2.385405E+02		-1.798658E+02
-1.170535E+02		3.023883E+02		-1.853348E+02
-7.387092E+02		2.459667E+01		7.141126E+02
-2.811231E+01		5.905175E+02		-5.624052E+02
-2.994490E+02		6.489969E+02		-3.495479E+02
-1.857976E+02		3.353095E+02		-1.495120E+02
-2.714494E+02		1.919705E+02		7.947887E+01
-8.533512E+02		3.188682E+02		5.344829E+02
2.950575E+02		-7.109538E+02		4.158963E+02
7.817108E+02		-4.611766E+02		-3.205342E+02
3.764862E+02		-1.382327E+01		-3.626630E+02
-4.625553E+02		6.584904E+02		-1.959351E+02
9.412382E+02		-4.207779E+02		-5.204603E+02
-2.451142E+02		3.301217E+02		-8.500745E+01
-8.479653E+02		2.500547E+02		5.979106E+02
4.748568E+02		-1.893268E+02		-2.855300E+02
5.687472E+01		-1.073365E+02		5.046173E+01
-3.508029E+02		8.004035E+02		-4.496006E+02
2.656801E+02		-6.931908E+02		4.275107E+02
-1.632495E+02		4.395233E+02		-2.762738E+02
-8.391570E+02		3.780599E+02		4.610972E+02
4.007649E+02		4.157318E+02		-8.164967E+02
-5.559614E+02		3.522258E+02		2.037356E+02
3.611653E+02		1.286825E+02		-4.898478E+02
8.516921E+00		5.158779E+02		-5.243948E+02
-3.993755E+02		7.406833E+02		-3.413079E+02
-7.238930E+00		4.684705E+02		-4.612316E+02
4.763134E+02		-3.027714E+02		-1.735419E+02
3.527519E+02		-2.977951E+02		-5.495674E+01
3.028883E+02		-2.447520E+02		-5.813633E+01
9.404674E+02		-1.516881E+02		-7.887793E+02
-1.893472E+02		3.013357E+02		-1.119885E+02
-2.151441E+01		1.141023E+02		-9.258790E+01
LINES 291 873
2		0		26
2		1		226
2		2		199
2		3		218
2		4		68
2		5		291
2		6		128
2		7		294
2		8		50
2		9		136
2		10		203
2		11		85
2		12		287
2		13		103
2		14		198
2		15		236
2		16		153
2		17		284
2		18		115
2		19		37
2		20		151
2		21		215
2		22		141
2		23		88
2		24		217
2		25		203
2		26		167
2		26		244
2		27		79
2		27		56
2		28		31
2		28		64
2		29		199
2		29		269
2		30		133
2		30		138
2		31		226
2		32		204
2		32		112
2		33		207
2		33		200
2		34		36
2		34		107
2		35		101
2		35		63
2		36		163
2		37		217
2		38		190
2		38		113
2		39		142
2		39		111
2		40		290
2		40		116
2		40		149
2		41		247
2		41		96
2		42		192
2		42		115
2		42		144
2		43		161
2		43		150
2		44		275
2		44		114
2		45		259
2		45		235
2		46		96
2		46		97
2		47		196
2		47		254
2		48		160
2		48		109
2		49		148
2		50		127
2		51		248
2		51		175
2		52		150
2		52		243
2		53		243
2		53		93
2		54		264
2		54		228
2		55		201
2		55		88
2		56		135
2		57		90
2		57		110
2		58		292
2		58		130
2		59		212
2		59		198
2		60		197
2		60		276
2		61		257
2		61		214
2		62		289
2		62		291
2		63		228
2		64		194
2		65		223
2		65		158
2		66		245
2		66		121
2		67		99
2		67		166
2		68		195
2		69		262
2		69		82
2		70		224
2		70		123
2		71		134
2		71		232
2		72		164
2		72		167
2		73		130
2		73		280
2		74		289
2		74		268
2		75		164
2		75		136
2		76		120
2		76		265
2		76		138
2		77		165
2		77		278
2		78		264
2		78		277
2		79		166
2		80		193
2		80		183
2		81		293
2		81		156
2		82		86
2		83		85
2		83		227
2		83		105
2		84		268
2		84		145
2		85		106
2		86		105
2		87		201
2		87		177
2		89		248
2		89		287
2		90		177
2		91		234
2		91		146
2		92		155
2		92		124
2		93		178
2		94		266
2		94		174
2		95		158
2		95		123
2		97		178
2		98		108
2		98		140
2		98		139
2		99		124
2		100		249
2		100		221
2		101		274
2		102		187
2		102		174
2		103		193
2		104		263
2		104		169
2		106		141
2		107		212
2		108		160
2		110		219
2		111		205
2		112		219
2		113		114
2		115		117
2		115		182
2		116		186
2		117		220
2		118		297
2		119		197
2		119		181
2		120		229
2		121		275
2		122		270
2		122		266
2		125		135
2		125		264
2		126		232
2		126		252
2		127		148
2		129		269
2		129		184
2		131		293
2		131		294
2		132		215
2		132		260
2		133		250
2		134		210
2		137		179
2		137		143
2		139		267
2		140		196
2		141		237
2		142		233
2		143		288
2		144		203
2		145		231
2		146		257
2		147		230
2		147		216
2		149		255
2		151		242
2		152		271
2		152		202
2		153		207
2		154		297
2		154		229
2		155		295
2		156		241
2		157		260
2		157		240
2		159		171
2		159		285
2		161		176
2		162		172
2		162		188
2		163		211
2		165		217
2		168		256
2		169		242
2		170		218
2		170		222
2		171		246
2		172		189
2		173		238
2		173		180
2		175		236
2		176		277
2		177		251
2		178		258
2		179		245
2		180		290
2		181		222
2		182		209
2		183		202
2		184		290
2		185		272
2		185		279
2		186		200
2		187		284
2		189		246
2		190		280
2		191		295
2		192		262
2		194		261
2		204		227
2		205		267
2		206		224
2		206		286
2		207		238
2		207		276
2		208		264
2		209		230
2		210		225
2		211		271
2		213		266
2		213		265
2		214		282
2		216		281
2		217		221
2		220		281
2		223		235
2		225		256
2		231		234
2		233		279
2		237		244
2		239		270
2		239		278
2		240		274
2		241		292
2		247		263
2		249		296
2		250		296
2		251		283
2		252		273
2		253		272
2		253		285
2		254		261
2		255		282
2		258		295
2		259		288
2		273		283
POINT_DATA 298
scalars NodeType integer
LOOKUP_TABLE default
7
7
7
7
7
7
7
7
7
7
7
7
7
7
7
7
7
7
7
7
7
7
7
7
7
7
0
0
0
0
0
0
0
0
0
0
0
0
0
0
0
0
0
0
0
0
0
0
0
8
0
0
0
0
0
0
0
0
0
0
0
0
0
0
0
0
0
0
0
0
0
0
0
0
0
0
0
0
0
0
0
0
0
0
0
0
0
0
0
0
0
0
0
0
0
0
0
0
0
0
0
0
0
0
0
0
0
0
0
8
0
0
0
0
0
0
0
0
9
0
0
0
0
0
0
8
0
0
9
0
0
0
0
0
0
0
0
0
0
0
0
0
0
0
0
0
0
0
0
0
0
0
0
0
0
0
0
0
0
0
0
0
0
0
0
0
0
0
8
0
0
0
0
0
0
0
0
0
0
0
0
0
0
0
0
0
0
0
8
0
0
8
0
0
0
8
0
0
0
0
0
0
0
0
0
0
0
0
8
0
0
0
0
0
0
0
9
0
0
0
0
0
0
0
0
0
0
0
0
0
0
0
0
0
0
0
0
0
0
0
0
0
0
0
0
0
0
0
0
0
0
0
0
0
0
0
0
0
0
0
0
0
0
0
0
0
0
0
0
0
0
0
0
0
0
0
0
0
0
0
0
0
0
0
0
0
8
0
0
0
0
0
0
0
0
0
0
0
CELL_DATA 291
SCALARS SlipSystem integer
LOOKUP_TABLE default
3
3
3
3
1
1
1
1
2
2
2
2
2
2
2
2
1
1
3
3
2
2
2
2
1
1
2
1
2
2
3
3
3
3
1
1
3
3
3
3
3
2
2
2
2
2
3
1
1
1
1
2
3
1
2
2
2
1
3
1
1
1
1
1
1
2
2
3
3
2
2
2
2
2
2
1
1
1
1
2
2
2
2
2
3
3
1
1
2
2
3
3
1
1
1
1
2
3
1
1
1
1
2
2
1
2
2
1
1
1
1
2
2
1
1
1
1
2
2
3
2
1
3
3
1
1
2
2
2
1
1
2
1
3
2
1
1
3
2
2
2
2
2
3
1
1
2
2
1
1
1
1
1
2
2
3
1
2
1
1
2
1
1
2
2
2
3
2
2
3
1
3
1
1
3
3
1
3
3
3
3
1
3
3
2
2
1
1
2
3
3
1
1
2
2
1
1
1
1
1
3
1
1
1
3
1
1
3
3
1
2
2
2
1
3
3
2
1
2
2
1
1
1
1
1
2
3
1
2
3
3
1
1
1
1
2
1
1
3
1
1
3
3
2
3
1
1
3
1
1
1
1
2
3
3
1
1
1
1
3
1
3
1
2
2
2
1
1
1
1
1
1
1
1
1
3
3
2
1
2
1
1
1
1
1
1
3
1
3
1
1
