# vtk DataFile Version 1.0
dislocation microstructure
ASCII
DATASET POLYDATA
POINTS 300 float
-1.407136E+02		-2.213016E+02		3.620151E+02
-4.069171E+02		1.959506E+01		3.873221E+02
-2.678171E+02		5.735064E+02		-3.056893E+02
-3.585793E+02		4.159045E+02		-5.732522E+01
2.435975E+02		5.088909E+02		-7.524885E+02
-3.645297E+01		4.790810E+02		-4.426281E+02
1.137360E+01		4.804267E+01		-5.941627E+01
2.977420E+02		-2.208350E+02		-7.690702E+01
-3.705953E+02		-3.364613E+02		7.070566E+02
-2.633774E+02		-5.962946E+01		3.230069E+02
-5.059046E+01		-1.177741E+02		1.683646E+02
-3.709113E+00		-3.770962E+02		3.808053E+02
-5.645235E+02		3.793574E+02		1.851661E+02
-3.703694E+02		9.044315E+01		2.799262E+02
-5.304416E+02		4.354699E+02		9.497178E+01
-5.136564E+02		1.737037E+02		3.399526E+02
-4.002894E+02		6.227393E+02		-2.224499E+02
-1.296146E+02		4.379697E+02		-3.083551E+02
3.132033E+01		-1.863970E+02		1.550767E+02
-2.594066E+02		2.052232E+02		5.418340E+01
5.559540E+02		2.224913E+01		-5.782031E+02
6.021915E+02		-3.324134E+02		-2.697781E+02
-9.943729E+01		-2.899623E+02		3.893996E+02
3.188077E+01		-5.505567E+02		5.186760E+02
-2.457631E+02		2.346175E+02		1.114560E+01
-1.949524E+01		-1.452330E+02		1.647282E+02
-2.212053E+02		-2.145415E+02		4.357468E+02
-1.001426E+02		-3.110877E+02		4.112303E+02
-3.858303E+02		-1.084258E+02		4.942560E+02
-2.703824E+02		6.215326E+02		-3.511502E+02
-3.061197E+02		3.427255E+02		-3.660572E+01
-3.772863E+02		-6.303794E+01		4.403243E+02
-1.007239E+01		-4.830926E+02		4.931649E+02
-5.237797E+02		7.331423E+02		-2.093626E+02
-3.617082E+02		3.980443E+02		-3.633605E+01
-4.461981E+02		-1.606411E+02		6.068392E+02
6.288495E+02		-2.003211E+02		-4.285284E+02
-3.521861E+02		-3.628030E+02		7.149891E+02
6.057592E+02		-1.358753E+02		-4.698838E+02
-9.467625E+02		1.312699E+02		8.154927E+02
-4.962673E+02		7.745282E+02		-2.782609E+02
7.977951E+02		1.870160E+01		-8.164967E+02
2.075820E+02		5.208974E+02		-7.284794E+02
-8.216963E+01		8.046508E+02		-7.224812E+02
5.777435E+02		-5.433742E+01		-5.234061E+02
5.722951E+02		-7.957826E+00		-5.643372E+02
5.349881E+02		-4.781039E+02		-5.688416E+01
-5.398345E+02		-1.648489E+02		7.046834E+02
-6.954842E+02		-1.210125E+02		8.164967E+02
-3.832508E+02		-4.332459E+02		8.164967E+02
-3.488870E+02		-3.905842E+02		7.394713E+02
-4.680678E+02		2.499387E+02		2.181291E+02
-3.371118E+02		3.851793E+02		-4.806752E+01
3.379493E+02		-3.892924E+02		5.134311E+01
4.164910E+02		-4.429574E+02		2.646638E+01
2.255772E+01		-5.945439E+02		5.719862E+02
-3.403493E+02		4.637796E+02		-1.234303E+02
6.301212E+02		-3.907692E+02		-2.393519E+02
2.725040E+02		-2.050750E+02		-6.742894E+01
-4.673486E+02		4.397584E+02		2.759021E+01
-5.250062E+02		6.649461E+02		-1.399400E+02
-3.174967E+02		9.448585E+02		-6.273618E+02
1.030996E+02		3.835084E+02		-4.866080E+02
6.180824E+02		1.863605E+02		-8.044429E+02
-4.027660E+02		-1.344873E+02		5.372533E+02
6.236730E+02		9.042551E+01		-7.140985E+02
6.320039E+02		-4.294887E+02		-2.025152E+02
1.726036E+01		7.071037E+02		-7.243641E+02
1.634174E+02		5.670416E+02		-7.304589E+02
1.008288E+02		-3.032686E+02		2.024399E+02
1.258325E+02		3.954237E+02		-5.212562E+02
4.149868E+02		-9.487204E+02		5.337336E+02
-1.722951E+02		-2.012971E+02		3.735922E+02
6.498541E+02		-2.841782E+02		-3.656759E+02
1.274324E+02		5.326089E+02		-6.600412E+02
-2.976584E+02		-1.160582E+02		4.137166E+02
-3.267714E+01		2.209938E+02		-1.883167E+02
-2.731491E+02		2.595220E+02		1.362716E+01
6.886602E+02		7.493508E+01		-7.635953E+02
-9.874317E-01		-2.025833E+02		2.035707E+02
-2.632551E+02		6.983704E+01		1.934181E+02
3.737067E+02		-4.169076E+02		4.320094E+01
1.039709E+02		-3.460597E+02		2.420888E+02
2.146149E+01		-3.913280E+02		3.698665E+02
4.025119E+01		6.796328E+02		-7.198840E+02
-1.927245E+02		8.842923E+02		-6.915679E+02
9.296388E+01		-3.704476E+02		2.774838E+02
-2.280136E+02		3.680478E+02		-1.400342E+02
7.376917E+02		-5.048817E+02		-2.328100E+02
-5.017321E+02		3.256949E+02		1.760373E+02
1.144650E+01		-5.493351E+02		5.378886E+02
-1.671102E+02		8.681279E+02		-7.010177E+02
1.453738E+02		-2.840473E+02		1.386735E+02
1.369509E+01		4.120284E+02		-4.257235E+02
5.120144E+01		-3.944551E+02		3.432537E+02
6.219888E+02		1.585250E+02		-7.805138E+02
2.389445E+02		-2.256044E+02		-1.334016E+01
1.263481E+02		-2.979591E+02		1.716110E+02
-6.807469E+02		-1.195020E+02		8.002490E+02
7.324842E+01		3.840308E+02		-4.572792E+02
1.841440E+02		5.424877E+02		-7.266317E+02
8.285449E+02		-5.401558E+02		-2.883891E+02
-3.266458E+02		4.994913E+02		-1.728455E+02
-3.354776E+02		7.120818E+01		2.642695E+02
6.587355E+02		8.606804E+01		-7.448035E+02
7.496068E+01		-3.866919E+02		3.117312E+02
-9.945814E+01		-3.474281E+02		4.468862E+02
-3.901563E+02		4.096760E+02		-1.951971E+01
-1.539986E+02		3.446006E+02		-1.906020E+02
6.394050E+02		-3.527350E+02		-2.866699E+02
6.850245E+00		-5.323494E+02		5.254992E+02
-9.283488E+02		1.118521E+02		8.164967E+02
1.722057E-01		-5.117508E+02		5.115786E+02
5.928107E+02		-1.015459E+02		-4.912648E+02
5.835781E+02		-7.483837E+01		-5.087397E+02
1.281643E+02		-1.881285E+02		5.996420E+01
-4.888781E+02		6.759260E+02		-1.870479E+02
-3.236121E+02		7.097585E+02		-3.861464E+02
-2.209631E+01		7.912029E+01		-5.702397E+01
-5.028528E+02		5.628913E+02		-6.003849E+01
-2.236942E+01		1.996186E+02		-1.772492E+02
-3.445973E+02		4.072108E+02		-6.261343E+01
-1.829287E+02		3.576068E+02		-1.746781E+02
1.387857E+02		6.447680E+02		-7.835537E+02
-2.592691E+02		5.365742E+02		-2.773050E+02
5.104118E+02		-4.755468E+02		-3.486494E+01
3.684736E+02		-9.147556E+02		5.462820E+02
-3.603879E+02		-4.168222E+02		7.772100E+02
1.491735E+02		-7.555067E+02		6.063332E+02
3.040782E+00		6.914123E+01		-7.218202E+01
-3.033660E+02		6.849507E+02		-3.815847E+02
6.510064E+02		-3.305637E+02		-3.204427E+02
2.544073E+02		-2.902009E+02		3.579367E+01
6.327414E+02		-4.528728E+02		-1.798686E+02
-1.238114E+02		3.257331E+02		-2.019216E+02
4.771234E+01		-2.605012E+02		2.127889E+02
-5.224112E+02		6.383276E+02		-1.159164E+02
-2.909205E+02		-7.840577E+01		3.693262E+02
-2.467160E+02		2.367432E+02		9.972762E+00
-4.993882E+01		2.494987E+02		-1.995599E+02
6.518514E+02		-3.075067E+02		-3.443447E+02
-6.428169E+02		-1.341668E+02		7.769837E+02
-2.427057E+02		-1.996020E+02		4.423077E+02
-9.806548E+02		1.920869E+02		7.885679E+02
-9.936681E+02		2.226297E+02		7.710384E+02
-1.497091E+01		-1.721953E+02		1.871662E+02
-6.798102E+00		7.335380E+02		-7.267399E+02
-2.184353E+02		8.992798E+02		-6.808445E+02
7.302785E+01		-9.938973E+01		2.636189E+01
-3.769783E+02		-4.302765E+02		8.072548E+02
-1.971999E+02		-2.008350E+02		3.980349E+02
1.513041E+02		-2.615731E+02		1.102691E+02
-2.111827E+02		1.304782E+02		8.070457E+01
-4.262134E+02		6.217260E+02		-1.955126E+02
-5.534644E+00		1.294804E+02		-1.239458E+02
-2.006248E+02		-2.586237E+02		4.592486E+02
4.610666E+02		-4.626296E+02		1.562975E+00
7.107568E+02		-4.924191E+02		-2.183377E+02
6.246125E+02		1.204713E+02		-7.450838E+02
-4.727334E+02		7.790154E+02		-3.062821E+02
-4.947495E+02		1.790350E+02		3.157145E+02
5.805181E+02		3.814744E+01		-6.186655E+02
-4.631894E+02		6.471626E+02		-1.839733E+02
-2.787013E+02		2.324627E+02		4.623862E+01
-2.760695E+02		-1.644638E+02		4.405333E+02
-5.633269E+02		-1.593051E+02		7.226320E+02
-9.659217E+02		1.623527E+02		8.035691E+02
-3.794550E+02		-8.717030E+01		4.666253E+02
4.418661E+02		-9.723476E+02		5.304816E+02
6.320224E+02		9.295259E+01		-7.249749E+02
-4.194416E+02		4.439490E+02		-2.450744E+01
5.969532E+02		-4.707416E+02		-1.262116E+02
-1.794898E+02		-2.840361E+02		4.635258E+02
-5.201396E+02		7.702958E+02		-2.501561E+02
-6.150042E+02		-1.444808E+02		7.594850E+02
-4.681860E+02		2.159482E+02		2.522379E+02
2.370611E+02		-2.464259E+02		9.364772E+00
4.662472E+01		-6.369298E+02		5.903051E+02
-2.861870E+01		4.563361E+02		-4.277174E+02
-4.767457E+01		-4.071571E+02		4.548317E+02
8.258581E+01		-6.852909E+02		6.027051E+02
-4.781896E+02		5.129047E+02		-3.471508E+01
-4.497297E+02		9.644840E+02		-5.147544E+02
-2.403839E+02		8.193914E+01		1.584448E+02
-3.472604E+02		7.328386E+02		-3.855782E+02
-1.035977E+03		3.488584E+02		6.871185E+02
9.318630E+01		-1.339830E+02		4.079670E+01
-2.813700E+02		5.357080E+02		-2.543380E+02
-1.047974E+03		3.662398E+02		6.817342E+02
6.484010E+01		6.471322E+02		-7.119723E+02
6.202358E+02		-1.749367E+02		-4.452992E+02
6.418451E+01		-6.613764E+02		5.971919E+02
-2.357655E+02		5.345999E+02		-2.988344E+02
-1.086363E+02		-3.308559E+02		4.394922E+02
-2.918989E+02		6.470375E+01		2.271951E+02
1.136447E+02		-7.203962E+02		6.067516E+02
-4.287698E+02		-1.538805E+02		5.826502E+02
1.467248E+02		6.697719E+02		-8.164967E+02
-5.868420E+02		-1.536112E+02		7.404531E+02
-5.172345E+02		6.098412E+02		-9.260665E+01
-5.019175E+02		4.444620E+02		5.745548E+01
-2.649384E+02		5.942505E+02		-3.293121E+02
-5.231000E+02		7.687388E+02		-2.456388E+02
2.444578E+01		-2.377195E+02		2.132737E+02
-2.225256E+02		1.013730E+02		1.211526E+02
-1.989907E+01		-1.448814E+02		1.647805E+02
-2.936521E+01		-4.388528E+02		4.682180E+02
1.433765E+02		4.389177E+02		-5.822942E+02
6.159118E+02		2.005849E+02		-8.164967E+02
-3.814639E+02		7.573337E+02		-3.758698E+02
-5.192122E+02		7.241652E+02		-2.049529E+02
1.393122E+02		4.169518E+02		-5.562639E+02
4.084533E+01		3.953158E+02		-4.361612E+02
6.737670E+01		-1.814711E+02		1.140944E+02
-2.837387E+02		2.737981E+02		9.940635E+00
8.170102E+01		-2.866293E+02		2.049282E+02
-4.315291E+02		4.275757E+02		3.953352E+00
-7.937586E+01		2.864062E+02		-2.070304E+02
-1.434061E+02		4.723998E+02		-3.289937E+02
-3.609198E+02		9.581842E+02		-5.972644E+02
6.251466E+02		-3.537503E+02		-2.713963E+02
4.325977E+01		-8.160025E+01		3.834048E+01
-3.846412E+02		4.223315E+02		-3.769036E+01
8.078259E+01		-1.705020E+02		8.971945E+01
-3.980730E+02		9.658324E+02		-5.677594E+02
8.808404E+01		-1.421712E+02		5.408716E+01
-2.995132E+02		3.146868E+02		-1.517360E+01
-4.515355E+02		4.753782E+02		-2.384269E+01
5.900779E+02		5.284209E+01		-6.429200E+02
1.414748E+02		6.153150E+02		-7.567897E+02
-3.447063E+02		4.398187E+02		-9.511235E+01
1.093440E+02		5.740427E+02		-6.833867E+02
-3.855140E+02		-1.727961E+01		4.027936E+02
-4.915401E+02		5.378583E+02		-4.631819E+01
8.607724E+02		-5.534413E+02		-3.073312E+02
-9.633515E+00		1.613277E+02		-1.516942E+02
1.381277E+02		4.978751E+02		-6.360028E+02
-2.843532E+02		3.517865E+02		-6.743332E+01
-5.561248E+01		7.813748E+02		-7.257623E+02
6.442856E+02		-2.547811E+02		-3.895044E+02
3.934456E+02		-9.322518E+02		5.388062E+02
-1.005334E+03		2.541624E+02		7.511716E+02
-1.090646E+02		8.264824E+02		-7.174178E+02
-3.091543E+02		5.212385E+02		-2.120842E+02
-4.793569E+02		1.915668E+02		2.877901E+02
-4.509742E+02		7.796008E+02		-3.286266E+02
-5.133815E+02		7.426120E+02		-2.292305E+02
-5.576070E+02		8.566067E+02		-2.989996E+02
-5.489853E+02		8.165134E+02		-2.675280E+02
7.638895E+02		-5.159537E+02		-2.479358E+02
5.588221E+02		-4.782434E+02		-8.057869E+01
6.041348E+02		7.120704E+01		-6.753418E+02
6.173604E+02		-4.625881E+02		-1.547723E+02
-1.548193E+02		-3.066035E+02		4.614228E+02
-1.013506E+03		2.789778E+02		7.345281E+02
-1.373168E+02		8.476585E+02		-7.103417E+02
2.777353E+02		-3.258674E+02		4.813207E+01
7.562706E+02		4.290110E+01		-7.991717E+02
-4.853768E+02		2.998720E+02		1.855048E+02
-3.341587E+02		4.819282E+02		-1.477695E+02
1.483778E+02		-2.345854E+02		8.620764E+01
1.848654E+02		-7.868981E+02		6.020327E+02
3.219557E+02		-8.848985E+02		5.629429E+02
-2.496572E+02		3.660407E+02		-1.163835E+02
-3.081398E+01		7.579531E+02		-7.271392E+02
-5.017285E+02		-1.686463E+02		6.703748E+02
4.861541E+02		-4.700327E+02		-1.612145E+01
-7.697909E+01		-3.766548E+02		4.536339E+02
-2.741902E+02		9.273877E+02		-6.531974E+02
-2.248613E+02		2.146454E+02		1.021591E+01
-2.088901E+02		1.533432E+02		5.554689E+01
6.674931E+02		-4.701310E+02		-1.973621E+02
-4.750172E+02		2.746973E+02		2.003199E+02
-2.677164E+02		3.605188E+02		-9.280240E+01
-4.647079E+02		-1.659324E+02		6.306403E+02
2.966535E+02		-8.684101E+02		5.717566E+02
7.181419E+02		6.214133E+01		-7.802832E+02
-2.461325E+02		9.139948E+02		-6.678623E+02
9.688777E+01		-1.538012E+02		5.691345E+01
5.699638E+02		2.185469E+01		-5.918185E+02
8.734150E+01		6.133345E+02		-7.006760E+02
-2.827624E+02		6.515479E+02		-3.687855E+02
-2.115241E+02		1.796298E+02		3.189423E+01
2.707764E+02		-8.510982E+02		5.803218E+02
7.984460E+02		-5.291132E+02		-2.693328E+02
5.743810E+02		-3.869470E+01		-5.356863E+02
-5.250015E+02		7.000163E+02		-1.750148E+02
-1.021246E+03		3.035304E+02		7.177158E+02
6.366434E+02		-2.255908E+02		-4.110526E+02
6.644199E+01		-1.085955E+02		4.215356E+01
-4.344746E+02		9.688312E+02		-5.343566E+02
2.281238E+02		-8.208850E+02		5.927612E+02
-1.870185E+02		5.125463E+02		-3.255278E+02
-5.309068E+02		3.569432E+02		1.739636E+02
1.438617E+02		4.624022E+02		-6.062639E+02
-4.241891E+02		7.752411E+02		-3.510520E+02
-1.024709E+01		4.329743E+02		-4.227272E+02
3.048505E+02		-3.578250E+02		5.297451E+01
2.431753E+02		-2.061886E+02		-3.698670E+01
-8.252814E+00		1.025393E+02		-9.428654E+01
LINES 290 870
2		0		72
2		1		232
2		2		201
2		3		222
2		4		42
2		5		178
2		6		129
2		7		58
2		8		37
2		9		137
2		10		205
2		11		83
2		12		293
2		13		103
2		14		200
2		15		160
2		16		153
2		17		218
2		18		213
2		19		163
2		20		279
2		21		220
2		22		27
2		23		90
2		24		77
2		25		205
2		26		142
2		26		155
2		26		150
2		27		193
2		28		64
2		28		167
2		29		201
2		29		281
2		30		52
2		30		226
2		30		237
2		31		232
2		31		167
2		32		206
2		32		112
2		33		210
2		33		202
2		34		107
2		34		52
2		35		274
2		35		196
2		36		288
2		36		190
2		37		50
2		38		190
2		38		113
2		39		166
2		39		111
2		40		173
2		40		159
2		41		257
2		42		100
2		43		242
2		43		238
2		44		285
2		44		114
2		45		285
2		45		279
2		46		250
2		46		125
2		47		265
2		47		165
2		48		98
2		49		149
2		50		127
2		51		175
2		51		272
2		52		121
2		53		297
2		53		81
2		54		156
2		54		81
2		55		90
2		55		177
2		56		230
2		56		259
2		57		220
2		57		66
2		58		298
2		59		216
2		59		200
2		60		286
2		60		136
2		61		268
2		61		219
2		62		70
2		62		99
2		63		95
2		63		208
2		64		196
2		65		158
2		65		251
2		65		169
2		66		133
2		67		146
2		67		84
2		68		100
2		68		229
2		69		215
2		69		82
2		69		97
2		70		211
2		71		240
2		71		168
2		72		150
2		73		239
2		73		140
2		74		231
2		74		236
2		75		164
2		75		137
2		76		120
2		76		139
2		77		214
2		77		163
2		77		138
2		78		276
2		78		104
2		79		203
2		79		145
2		80		194
2		80		183
2		82		86
2		83		94
2		84		189
2		85		147
2		85		91
2		86		105
2		87		122
2		87		263
2		88		249
2		88		157
2		89		258
2		89		293
2		90		110
2		91		255
2		92		97
2		92		151
2		93		212
2		93		296
2		94		105
2		95		158
2		96		298
2		96		176
2		98		141
2		99		212
2		101		284
2		101		234
2		102		259
2		102		243
2		103		194
2		104		169
2		106		193
2		106		267
2		107		216
2		108		134
2		108		122
2		109		131
2		109		220
2		110		112
2		113		114
2		115		260
2		115		278
2		116		210
2		116		162
2		117		184
2		117		130
2		118		299
2		119		199
2		119		233
2		120		235
2		121		230
2		123		229
2		123		197
2		124		192
2		124		187
2		125		266
2		126		240
2		126		262
2		127		149
2		128		261
2		128		195
2		130		281
2		131		140
2		132		176
2		132		256
2		133		271
2		133		252
2		134		217
2		135		215
2		135		203
2		136		199
2		138		269
2		139		217
2		141		174
2		142		164
2		143		166
2		143		144
2		144		241
2		145		205
2		146		264
2		147		277
2		148		221
2		148		186
2		151		260
2		152		270
2		152		204
2		153		162
2		154		299
2		154		235
2		155		172
2		156		266
2		157		271
2		159		245
2		160		244
2		161		279
2		161		228
2		165		198
2		170		222
2		170		227
2		171		252
2		171		250
2		172		253
2		173		246
2		173		248
2		173		202
2		174		198
2		175		244
2		177		191
2		178		296
2		179		267
2		179		206
2		180		195
2		180		191
2		181		233
2		181		227
2		182		290
2		183		204
2		184		209
2		185		287
2		185		188
2		186		278
2		187		243
2		189		280
2		192		292
2		193		253
2		207		294
2		207		211
2		209		295
2		210		246
2		210		286
2		213		223
2		214		226
2		218		292
2		219		224
2		221		289
2		223		278
2		224		290
2		225		289
2		225		278
2		228		251
2		231		280
2		236		294
2		237		273
2		238		264
2		239		288
2		241		254
2		242		255
2		245		295
2		247		248
2		249		284
2		254		287
2		256		297
2		257		276
2		258		272
2		261		291
2		262		275
2		263		273
2		265		274
2		268		277
2		269		282
2		270		282
2		275		283
2		283		291
POINT_DATA 300
scalars NodeType integer
LOOKUP_TABLE default
7
7
7
7
7
7
7
7
7
7
7
7
7
7
7
7
7
7
7
7
7
7
7
7
7
7
0
0
0
0
0
0
0
0
0
0
0
0
0
0
0
8
0
0
0
0
0
0
8
8
0
0
0
0
0
0
0
0
0
0
0
0
0
0
0
0
0
0
0
0
0
0
0
0
0
0
0
0
0
0
0
0
0
0
0
0
0
0
0
0
0
0
0
0
0
0
0
0
0
0
0
0
0
0
0
0
0
0
0
0
0
8
0
0
0
0
0
0
9
0
0
0
0
0
0
0
0
0
0
9
0
0
0
0
0
0
0
0
0
0
0
0
0
0
0
0
0
0
0
0
0
0
0
0
0
0
0
0
0
0
0
0
0
0
0
0
0
0
8
0
0
0
0
0
0
0
0
0
0
0
0
0
8
0
0
0
0
0
8
0
0
0
0
0
0
0
0
8
0
0
0
0
0
0
0
0
0
0
8
0
0
0
0
0
0
0
0
0
0
0
0
9
0
0
0
0
0
0
0
0
0
0
0
0
8
0
0
0
0
0
0
0
0
0
0
0
0
8
0
0
0
0
0
0
0
0
0
0
0
0
0
0
0
0
0
0
0
0
0
0
0
0
0
0
0
0
0
0
0
0
0
0
0
0
0
0
0
0
0
0
0
0
0
0
0
0
0
0
0
0
CELL_DATA 290
SCALARS SlipSystem integer
LOOKUP_TABLE default
3
3
3
3
1
1
1
1
2
2
2
2
2
2
2
2
1
1
3
3
2
2
2
2
1
1
2
1
3
2
3
3
3
3
3
3
3
3
3
3
3
3
3
2
2
3
3
1
1
2
1
1
1
1
3
3
2
1
1
1
1
1
1
1
1
1
3
3
3
2
2
2
2
1
1
1
1
1
1
1
1
1
3
3
1
2
2
3
3
1
1
1
1
1
1
3
1
3
2
3
1
1
1
1
3
2
1
1
1
1
3
1
1
1
1
2
2
3
3
3
3
2
2
2
3
3
2
2
2
2
1
1
1
2
3
3
2
2
2
2
3
1
1
1
1
1
2
1
1
1
3
1
2
2
1
1
2
2
3
3
2
3
3
1
1
3
1
1
1
1
1
3
3
3
3
3
3
1
1
1
1
1
1
1
1
2
1
1
3
1
1
1
2
1
3
3
3
3
2
3
3
2
1
1
1
3
1
1
3
3
1
2
2
1
3
3
1
1
2
3
2
3
3
3
3
3
1
1
1
1
1
3
3
2
1
1
3
3
1
1
3
3
1
2
3
1
1
3
1
1
1
1
1
1
3
1
3
3
3
1
1
1
3
1
1
1
3
1
1
3
1
1
1
1
3
1
2
1
1
2
2
1
1
3
3
1
2
2
1
1
