# vtk DataFile Version 1.0
dislocation microstructure
ASCII
DATASET POLYDATA
POINTS 264 float
-1.407136E+02		-2.213016E+02		3.620151E+02
-4.069171E+02		1.959506E+01		3.873221E+02
-2.678171E+02		5.735064E+02		-3.056893E+02
-3.585793E+02		4.159045E+02		-5.732522E+01
2.435975E+02		5.088909E+02		-7.524885E+02
-3.645297E+01		4.790810E+02		-4.426281E+02
1.137360E+01		4.804267E+01		-5.941627E+01
2.977420E+02		-2.208350E+02		-7.690702E+01
-3.705953E+02		-3.364613E+02		7.070566E+02
-2.633774E+02		-5.962946E+01		3.230069E+02
-5.059046E+01		-1.177741E+02		1.683646E+02
-3.709113E+00		-3.770962E+02		3.808053E+02
-5.645235E+02		3.793574E+02		1.851661E+02
-3.703694E+02		9.044315E+01		2.799262E+02
-5.304416E+02		4.354699E+02		9.497178E+01
-5.136564E+02		1.737037E+02		3.399526E+02
-4.002894E+02		6.227393E+02		-2.224499E+02
-1.296146E+02		4.379697E+02		-3.083551E+02
3.132033E+01		-1.863970E+02		1.550767E+02
-2.594066E+02		2.052232E+02		5.418340E+01
5.559540E+02		2.224913E+01		-5.782031E+02
6.021915E+02		-3.324134E+02		-2.697781E+02
-9.943729E+01		-2.899623E+02		3.893996E+02
3.188077E+01		-5.505567E+02		5.186760E+02
-2.457631E+02		2.346175E+02		1.114560E+01
-1.949524E+01		-1.452330E+02		1.647282E+02
-1.012229E+02		-1.332001E+02		2.344230E+02
5.773069E+02		6.767651E+01		-6.449835E+02
-1.007511E+02		-1.485625E+02		2.493136E+02
-1.129998E+02		-2.049086E+02		3.179085E+02
-2.107956E+02		1.370325E+02		7.376311E+01
-4.498492E+02		1.164870E+01		4.382005E+02
1.380762E+02		-3.439242E+02		2.058480E+02
-3.686469E+02		6.278746E+02		-2.592277E+02
-3.315173E+02		2.244371E+02		1.070802E+02
-2.760260E+02		5.439482E+02		-2.679222E+02
-3.154231E+02		2.038945E+02		1.115286E+02
7.415204E+02		-6.069754E+01		-6.808229E+02
5.609388E+02		4.534740E+01		-6.062862E+02
1.536517E+02		5.878002E+02		-7.414519E+02
-1.253789E+02		-1.289799E+02		2.543588E+02
5.445824E+02		-4.364837E+01		-5.009340E+02
-7.955863E+01		-9.765260E+01		1.772112E+02
6.138552E+02		-2.121762E+02		-4.016789E+02
2.046479E+02		-1.545064E+02		-5.014148E+01
5.579040E+02		-7.468543E+01		-4.832186E+02
6.288791E+02		-3.396175E+02		-2.892616E+02
-5.468802E+02		-4.273021E+01		5.896104E+02
-5.485187E+02		-1.641119E+02		7.126306E+02
-4.776792E+02		-2.854980E+02		7.631772E+02
-4.103931E+02		-3.281725E+02		7.385656E+02
-4.918088E+02		2.412938E+01		4.676794E+02
6.005544E+02		-1.738052E+02		-4.267492E+02
5.793282E+02		-1.218273E+02		-4.575008E+02
-3.053871E+02		9.312009E+02		-6.258138E+02
-5.073910E+02		-2.532052E+02		7.605963E+02
8.083522E+02		-2.912816E+02		-5.170706E+02
1.994980E+02		-4.299279E+02		2.304299E+02
1.896329E+02		-4.905050E+02		3.008721E+02
-5.305665E+02		3.680185E+02		1.625481E+02
-3.760503E+02		5.578048E+02		-1.817546E+02
6.558805E+02		-3.778916E+02		-2.779890E+02
-3.422018E+02		1.595010E+02		1.827007E+02
-5.100378E+02		5.612131E+02		-5.117535E+01
-4.963455E+02		4.572752E+02		3.907025E+01
-3.977951E+02		1.926230E+02		2.051722E+02
-4.537882E+02		4.521901E+02		1.598079E+00
8.124612E+02		-2.267920E+02		-5.856692E+02
-2.734302E+02		9.127897E+02		-6.393595E+02
-4.234299E+02		3.795548E+02		4.387507E+01
2.277018E+01		6.463136E+02		-6.690838E+02
3.873008E+02		-4.203158E+02		3.301500E+01
-1.757552E+02		-1.161647E+02		2.919199E+02
-2.911930E+02		6.081792E+02		-3.169862E+02
1.979798E+02		-4.004780E+02		2.024981E+02
6.161993E+02		-4.241291E+02		-1.920703E+02
-1.039395E+02		1.896828E+02		-8.574330E+01
-2.020081E+02		2.390126E+02		-3.700449E+01
-2.424720E+02		2.229022E+02		1.956984E+01
8.129830E+02		-2.601961E+02		-5.527869E+02
7.665499E+02		-9.509201E+01		-6.714579E+02
6.385292E+02		2.002082E+01		-6.585500E+02
7.551154E+02		-3.659427E+02		-3.891727E+02
6.796881E+02		-3.800944E+02		-2.995937E+02
-1.844110E+02		5.064809E+02		-3.220699E+02
-1.990915E+01		-3.402174E+02		3.601265E+02
-6.015047E+01		-3.066745E+02		3.668250E+02
1.330734E+02		-5.579024E+02		4.248290E+02
7.509125E+01		-5.655668E+02		4.904756E+02
-4.648886E+02		2.152045E+02		2.496841E+02
2.294795E+02		-3.676024E+02		1.381229E+02
-2.222757E+02		5.276767E+02		-3.054010E+02
7.206377E+01		5.617047E+02		-6.337685E+02
4.368018E+01		-8.158146E+01		3.790128E+01
-2.425477E+00		4.405276E+02		-4.381021E+02
9.553197E+01		4.795215E+02		-5.750534E+02
-4.286697E+02		2.512989E+02		1.773707E+02
-4.487758E+02		2.981843E+02		1.505915E+02
-3.566670E+02		2.579877E+02		9.867926E+01
-4.099702E+02		3.509554E+02		5.901478E+01
-4.869028E+02		2.043702E+02		2.825327E+02
1.869184E+02		5.407713E+02		-7.276897E+02
-3.577284E+02		1.029226E+02		2.548058E+02
-1.407008E+02		5.235926E+01		8.834157E+01
1.041370E+02		-5.998428E+01		-4.415272E+01
-5.550103E+02		-9.322790E+01		6.482382E+02
-5.279340E+02		-2.727187E+00		5.306612E+02
-5.545535E+02		-1.248077E+02		6.793613E+02
-5.305438E+02		-2.153015E+02		7.458452E+02
1.940481E+02		-3.722214E+02		1.781732E+02
-5.129030E+02		1.328705E+01		4.996160E+02
1.713126E+02		-3.617747E+02		1.904621E+02
9.132250E+01		5.041412E+02		-5.954637E+02
-5.649357E+02		6.127933E+02		-4.785759E+01
-4.532084E+02		4.803465E+02		-2.713807E+01
-2.994212E+02		5.486655E+02		-2.492443E+02
-1.061548E+02		7.895077E+02		-6.833529E+02
-5.243749E+01		1.162393E+02		-6.380181E+01
-4.100333E+02		5.309918E+02		-1.209585E+02
-4.353920E+01		8.158811E+01		-3.804890E+01
1.820192E+02		-1.294318E+02		-5.258738E+01
-1.497809E+02		2.236987E+02		-7.391781E+01
-7.160996E+01		1.512563E+02		-7.964630E+01
8.064827E+02		-1.897658E+02		-6.167170E+02
7.979660E+02		-3.199901E+02		-4.779758E+02
3.366957E+02		-3.853141E+02		4.861842E+01
1.701010E+02		-5.280739E+02		3.579729E+02
-3.324018E+02		6.338289E+02		-3.014271E+02
3.720511E+00		6.877698E+01		-7.249749E+01
-5.522341E+02		-6.639163E+01		6.186258E+02
-5.389302E+02		-2.155735E+01		5.604875E+02
-3.698415E+02		9.656280E+02		-5.957866E+02
5.820799E+02		3.489877E+01		-6.169787E+02
7.126800E+02		-3.047869E+01		-6.822013E+02
4.201498E+02		-4.380131E+02		1.786329E+01
-1.444559E+02		8.224163E+02		-6.779605E+02
-2.384727E+02		-8.451467E+01		3.229874E+02
6.345512E+02		-3.748698E+02		-2.596814E+02
7.207571E+02		-3.783738E+02		-3.423833E+02
6.108316E+02		1.657165E+02		-7.765481E+02
1.459262E+02		6.705705E+02		-8.164967E+02
5.081857E+01		-2.837842E+02		2.329656E+02
1.988022E+01		-2.506355E+02		2.307553E+02
-3.996284E+02		9.834413E+02		-5.838129E+02
-4.758898E+02		5.347439E+02		-5.885410E+01
5.628559E+01		5.929999E+02		-6.492855E+02
-4.936780E+02		3.448882E+02		1.487898E+02
5.483471E+01		-1.190644E+02		6.422972E+01
-4.438432E+02		-3.111721E+02		7.550153E+02
-1.721759E+02		9.366376E+01		7.851211E+01
-1.464250E+02		4.722019E+02		-3.257769E+02
8.484414E+01		5.289745E+02		-6.138187E+02
7.805506E+02		-3.456378E+02		-4.349128E+02
2.895061E+02		-3.463302E+02		5.682414E+01
7.927155E+02		-1.463621E+02		-6.463534E+02
-5.191624E+02		4.500042E+02		6.915822E+01
-2.239458E+02		8.814329E+02		-6.574872E+02
4.855056E+02		-4.607180E+02		-2.478767E+01
5.358826E+02		-1.893239E+01		-5.169502E+02
-4.015339E+01		7.240966E+02		-6.839432E+02
5.322023E+02		1.382826E+01		-5.460305E+02
-6.601112E+02		7.238194E+02		-6.370820E+01
-2.387913E+01		-1.412421E+02		1.651212E+02
-2.058296E+02		-1.037728E+02		3.096024E+02
-2.268204E+02		2.351047E+02		-8.284257E+00
-1.831003E+02		8.525776E+02		-6.694773E+02
-1.487096E+02		-1.241924E+02		2.729020E+02
5.178080E+02		-4.650303E+02		-5.277776E+01
1.967821E+02		-4.613117E+02		2.645295E+02
-4.017034E+02		4.575698E+02		-5.586642E+01
4.048838E+01		6.196662E+02		-6.601546E+02
-6.276161E+02		6.851185E+02		-5.750239E+01
2.580407E+02		-3.421583E+02		8.411754E+01
-3.359581E+02		9.477215E+02		-6.117634E+02
1.322617E+02		-8.190787E+01		-5.035379E+01
6.243222E+02		-2.506293E+02		-3.736929E+02
1.820519E+02		-5.086514E+02		3.265995E+02
-1.028821E+02		-1.775334E+02		2.804155E+02
-4.700892E+02		3.237550E+02		1.463342E+02
-4.320238E+02		5.125974E+02		-8.057359E+01
-4.561150E+02		4.530105E+02		3.104502E+00
4.426140E+01		-1.738772E+02		1.296158E+02
-3.577476E+02		1.500267E+02		2.077210E+02
5.919085E+02		9.367108E+01		-6.855796E+02
6.323316E+02		-3.189526E+02		-3.133790E+02
-3.517054E+02		6.327212E+02		-2.810158E+02
-1.135355E+02		8.834115E+00		1.047013E+02
-6.749161E+02		7.392976E+02		-6.438142E+01
-5.906169E+02		6.407603E+02		-5.014339E+01
2.443023E+02		-1.920381E+02		-5.226419E+01
6.134397E+02		1.971653E+02		-8.106050E+02
-2.194764E+01		-1.712332E+02		1.931809E+02
7.416685E+01		4.226752E+02		-4.968421E+02
-3.506103E+02		1.280207E+02		2.225896E+02
8.156787E+01		-4.394816E+01		-3.761971E+01
-4.811866E+02		2.397539E+01		4.572112E+02
1.663688E+02		5.631630E+02		-7.295318E+02
-5.135782E+02		6.043454E+01		4.531436E+02
-3.948917E+02		5.441841E+02		-1.492924E+02
-3.847229E+02		3.027449E+02		8.197803E+01
6.161234E+02		2.003733E+02		-8.164967E+02
-2.524432E+02		5.387317E+02		-2.862885E+02
1.070532E+02		-5.654373E+02		4.583841E+02
1.539181E+02		-5.449601E+02		3.910420E+02
-4.269814E+02		4.869632E+02		-5.998181E+01
1.127249E+02		-3.294011E+02		2.166763E+02
-5.335802E+02		9.384393E+01		4.397363E+02
2.089357E+02		5.196826E+02		-7.286183E+02
-7.868119E+00		-2.081338E+02		2.160019E+02
-3.787586E+02		6.100682E+02		-2.313096E+02
-5.389280E+02		5.869483E+02		-4.802034E+01
-4.166955E+02		9.975182E+02		-5.808228E+02
5.167242E+01		-1.579211E+02		1.062486E+02
2.259744E+02		-1.771257E+02		-4.884873E+01
-3.237285E+02		1.702811E+02		1.534474E+02
-9.850066E+01		-2.157559E+01		1.200763E+02
-3.425891E+02		5.534996E+02		-2.109105E+02
6.318368E+02		-2.948058E+02		-3.370311E+02
-3.116744E+02		6.225021E+02		-3.108277E+02
6.100840E+02		3.050488E+01		-6.405889E+02
-8.673318E+01		-5.303075E+01		1.397639E+02
-2.412400E+02		2.095117E+02		3.172831E+01
-3.815766E+02		4.351506E+02		-5.357402E+01
-4.348862E+02		2.216690E+02		2.132171E+02
-7.247676E+01		7.576854E+02		-6.852086E+02
5.415265E+02		2.648931E+01		-5.680158E+02
-8.499074E+00		6.875144E+02		-6.790153E+02
5.762101E+02		-4.557815E+02		-1.204286E+02
6.042427E+02		1.271664E+02		-7.314091E+02
4.517019E+02		-4.511125E+02		-5.893912E-01
6.757151E+02		-1.061896E+00		-6.746532E+02
-4.238241E+02		1.090308E+01		4.129210E+02
8.387282E+01		-3.105194E+02		2.266466E+02
-4.311951E+02		2.238556E+02		2.073396E+02
-5.466132E+02		1.720329E+02		3.745803E+02
5.508872E+01		-1.401412E+02		8.505246E+01
1.421403E+02		6.125718E+02		-7.547121E+02
5.487234E+02		-4.635383E+02		-8.518512E+01
3.616674E+02		-4.036240E+02		4.195659E+01
-5.476575E+02		1.324079E+02		4.152497E+02
5.983470E+02		-4.426255E+02		-1.557214E+02
3.815364E+01		4.206668E+02		-4.588204E+02
9.270285E+01		4.464092E+02		-5.391121E+02
-5.084445E+02		1.829470E+02		3.254975E+02
-4.348497E+02		4.054009E+02		2.944879E+01
-3.730173E+02		5.764196E+02		-2.034023E+02
-1.774867E+02		2.348652E+02		-5.737850E+01
-2.486926E+02		8.974715E+02		-6.487789E+02
6.249688E+02		-3.472577E+02		-2.777112E+02
2.696899E+02		-2.012573E+02		-6.843255E+01
-3.122995E+02		1.802645E+02		1.320350E+02
5.902984E+02		-1.478046E+02		-4.424938E+02
-5.312541E+02		1.800452E+02		3.512089E+02
1.580075E+02		-1.049849E+02		-5.302263E+01
1.379447E+02		6.437718E+02		-7.817165E+02
6.266279E+02		-4.064326E+02		-2.201953E+02
-5.408887E+02		-1.893304E+02		7.302191E+02
-8.582164E+01		-1.196142E+02		2.054359E+02
-2.376807E+02		1.854752E+02		5.220549E+01
-2.328537E+02		1.637535E+02		6.910013E+01
7.805318E+02		-1.206963E+02		-6.598356E+02
2.452413E+02		-3.546690E+02		1.094278E+02
3.121082E+02		-3.652441E+02		5.313588E+01
-5.486641E+02		1.529773E+02		3.956868E+02
LINES 255 765
2		0		29
2		1		231
2		2		73
2		3		222
2		4		207
2		5		94
2		6		128
2		7		249
2		8		50
2		9		136
2		10		162
2		11		85
2		12		59
2		13		102
2		14		155
2		15		243
2		16		209
2		17		150
2		18		181
2		19		221
2		20		132
2		21		248
2		22		86
2		23		88
2		24		221
2		25		162
2		26		28
2		26		257
2		26		40
2		27		183
2		27		38
2		28		177
2		29		177
2		30		149
2		30		259
2		31		231
2		31		195
2		32		205
2		32		111
2		33		185
2		33		209
2		34		98
2		34		36
2		35		201
2		35		115
2		36		250
2		37		133
2		37		80
2		38		225
2		39		236
2		39		196
2		40		166
2		41		158
2		41		45
2		42		220
2		42		257
2		43		175
2		43		52
2		44		213
2		44		120
2		45		53
2		46		248
2		46		184
2		47		129
2		47		130
2		48		107
2		48		256
2		49		148
2		49		55
2		50		148
2		51		195
2		51		110
2		52		251
2		53		251
2		54		173
2		54		68
2		55		108
2		56		124
2		56		79
2		57		168
2		57		74
2		58		168
2		58		176
2		59		146
2		60		216
2		60		198
2		60		245
2		61		137
2		61		83
2		62		214
2		62		182
2		63		210
2		63		144
2		64		180
2		64		155
2		65		223
2		65		182
2		66		114
2		66		180
2		66		244
2		67		123
2		67		79
2		68		247
2		69		99
2		69		244
2		70		226
2		70		170
2		71		134
2		71		238
2		72		163
2		72		166
2		73		218
2		74		109
2		75		255
2		75		240
2		76		121
2		76		122
2		77		164
2		77		246
2		78		164
2		78		221
2		80		260
2		81		230
2		81		219
2		82		138
2		82		152
2		83		138
2		84		150
2		84		91
2		85		86
2		87		202
2		87		203
2		88		202
2		89		223
2		89		100
2		90		109
2		90		261
2		91		201
2		92		151
2		92		145
2		93		147
2		94		241
2		95		242
2		95		112
2		96		233
2		96		97
2		97		178
2		98		199
2		99		199
2		100		243
2		101		207
2		101		196
2		102		193
2		103		186
2		103		149
2		104		174
2		104		194
2		105		107
2		105		129
2		106		110
2		106		130
2		108		256
2		109		111
2		112		151
2		113		210
2		113		188
2		114		204
2		115		216
2		116		135
2		116		224
2		117		122
2		117		119
2		118		179
2		118		198
2		120		253
2		121		246
2		123		154
2		124		152
2		125		238
2		125		262
2		126		203
2		126		176
2		127		185
2		127		218
2		131		173
2		131		143
2		132		219
2		133		230
2		134		229
2		135		165
2		136		163
2		137		248
2		137		255
2		139		228
2		139		190
2		140		254
2		141		232
2		141		142
2		142		208
2		143		211
2		144		179
2		145		170
2		146		178
2		147		235
2		153		262
2		153		172
2		154		260
2		156		165
2		156		247
2		157		229
2		157		167
2		158		160
2		159		224
2		159		226
2		160		225
2		161		171
2		161		187
2		162		191
2		167		237
2		169		222
2		169		204
2		171		188
2		172		261
2		174		253
2		175		217
2		179		204
2		181		212
2		182		193
2		183		228
2		184		217
2		186		215
2		189		249
2		189		213
2		190		200
2		191		208
2		192		241
2		192		242
2		195		197
2		197		206
2		205		232
2		206		239
2		209		245
2		212		235
2		214		250
2		215		220
2		221		258
2		223		233
2		227		237
2		227		240
2		234		252
2		234		263
2		236		254
2		239		263
2		243		252
2		258		259
POINT_DATA 264
scalars NodeType integer
LOOKUP_TABLE default
7
7
7
7
7
7
7
7
7
7
7
7
7
7
7
7
7
7
7
7
7
7
7
7
7
7
0
0
0
0
0
0
0
0
0
0
0
0
0
0
0
0
0
0
0
0
0
0
0
0
0
0
0
0
0
0
0
0
0
0
0
0
0
0
0
0
0
0
0
0
0
0
0
0
0
0
0
0
0
0
0
0
0
0
0
0
0
0
0
0
0
0
0
9
0
0
0
0
0
0
0
0
0
0
0
0
0
0
0
0
0
0
0
0
0
0
0
0
0
9
0
0
0
0
0
0
0
0
9
0
0
0
0
0
0
0
0
0
0
0
8
0
0
0
0
0
0
0
0
0
0
0
0
0
0
0
0
0
0
0
0
0
0
0
0
0
0
0
0
0
0
0
0
0
0
0
0
0
0
0
0
0
0
0
0
0
0
8
0
0
0
0
0
0
9
0
0
0
0
0
8
0
0
0
0
0
0
0
0
0
0
8
0
0
0
0
0
0
0
0
0
0
0
0
0
0
0
0
0
0
0
0
0
0
0
0
0
0
0
0
0
0
0
0
0
0
0
0
0
0
0
0
0
0
0
0
0
0
0
0
0
0
0
0
CELL_DATA 255
SCALARS SlipSystem integer
LOOKUP_TABLE default
3
3
3
3
1
1
1
1
2
2
2
2
2
2
2
2
1
1
3
3
2
2
2
2
1
1
3
1
2
1
1
3
3
1
1
3
3
3
3
3
3
3
3
1
1
3
2
2
1
1
1
2
1
1
1
1
1
1
1
1
1
1
1
2
2
2
2
2
2
2
2
2
1
1
1
1
2
2
2
2
2
2
2
2
1
3
2
2
2
3
3
1
1
2
2
1
1
1
2
3
2
2
1
3
3
1
1
1
1
2
2
3
2
1
1
3
3
3
3
3
3
2
2
2
2
2
2
1
1
2
2
2
2
3
3
1
1
1
1
1
3
1
1
1
2
2
2
3
3
3
1
1
2
1
1
1
1
2
2
2
2
2
3
1
1
1
1
1
1
1
3
3
3
3
1
3
2
2
1
1
2
2
3
3
1
1
2
2
1
1
2
3
1
1
1
1
3
3
3
1
1
1
2
3
1
1
2
1
1
1
1
1
1
1
1
1
1
3
1
3
3
1
1
1
1
13
3
2
1
1
1
1
1
1
3
1
1
1
1
3
1
2
3
3
1
1
2
1
1
1
1
1
1
1
1
