# vtk DataFile Version 1.0
dislocation microstructure
ASCII
DATASET POLYDATA
POINTS 158 float
-1.407136E+02		-2.213016E+02		3.620151E+02
-4.069171E+02		1.959506E+01		3.873221E+02
-2.678171E+02		5.735064E+02		-3.056893E+02
-3.585793E+02		4.159045E+02		-5.732522E+01
2.435975E+02		5.088909E+02		-7.524885E+02
-3.645297E+01		4.790810E+02		-4.426281E+02
1.137360E+01		4.804267E+01		-5.941627E+01
2.977420E+02		-2.208350E+02		-7.690702E+01
-3.705953E+02		-3.364613E+02		7.070566E+02
-2.633774E+02		-5.962946E+01		3.230069E+02
-5.059046E+01		-1.177741E+02		1.683646E+02
-3.709113E+00		-3.770962E+02		3.808053E+02
-5.645235E+02		3.793574E+02		1.851661E+02
-3.703694E+02		9.044315E+01		2.799262E+02
-5.304416E+02		4.354699E+02		9.497178E+01
-5.136564E+02		1.737037E+02		3.399526E+02
-4.002894E+02		6.227393E+02		-2.224499E+02
-1.296146E+02		4.379697E+02		-3.083551E+02
3.132033E+01		-1.863970E+02		1.550767E+02
-2.594066E+02		2.052232E+02		5.418340E+01
5.559540E+02		2.224913E+01		-5.782031E+02
6.021915E+02		-3.324134E+02		-2.697781E+02
-9.943729E+01		-2.899623E+02		3.893996E+02
3.188077E+01		-5.505567E+02		5.186760E+02
-2.457631E+02		2.346175E+02		1.114560E+01
-1.949524E+01		-1.452330E+02		1.647282E+02
-2.621269E+02		-5.914332E+01		3.212702E+02
-3.355951E+02		-1.225590E+01		3.478510E+02
-1.837841E+02		-1.405023E+02		3.242863E+02
-1.557889E+02		-1.811945E+02		3.369834E+02
-3.323741E+02		-5.053809E+01		3.829122E+02
-3.677395E+02		1.244502E+01		3.552945E+02
-3.475461E+02		5.242409E+02		-1.766948E+02
-3.162686E+02		5.587039E+02		-2.424353E+02
-1.446970E+02		1.916036E+02		-4.690657E+01
-3.657946E+02		4.775225E+02		-1.117279E+02
-3.670463E+02		4.480108E+02		-8.096447E+01
1.615736E+02		3.924198E+02		-5.539934E+02
2.346724E+02		4.048637E+02		-6.395361E+02
2.736612E+02		4.387207E+02		-7.123820E+02
7.805064E+01		3.944456E+02		-4.724962E+02
1.002951E+01		4.236587E+02		-4.336882E+02
1.968415E+02		-3.355799E+01		-1.632835E+02
9.062920E+01		3.368625E+01		-1.243155E+02
5.973834E+01		1.833351E+01		-7.807185E+01
2.746557E+02		-1.167508E+02		-1.579049E+02
3.112539E+02		-1.832568E+02		-1.279972E+02
-3.670143E+02		-1.617175E+02		5.287318E+02
-3.894346E+02		-2.346819E+02		6.241165E+02
-3.948847E+02		-2.784803E+02		6.733650E+02
-3.897878E+02		-3.078567E+02		6.976445E+02
-3.440291E+02		-8.972627E+01		4.337553E+02
2.951390E+02		-1.475661E+02		-1.475729E+02
-2.050534E+01		4.505976E+02		-4.300923E+02
2.306857E+01		-2.644016E+02		2.413330E+02
5.134253E+00		-1.941560E+02		1.890217E+02
-1.597807E+01		-1.533543E+02		1.693324E+02
3.183142E+01		-3.321056E+02		3.002742E+02
2.341787E+01		-3.646408E+02		3.412229E+02
-5.366015E+02		3.522560E+02		1.843454E+02
-3.957553E+02		2.104468E+02		1.853085E+02
-3.671650E+02		1.486998E+02		2.184652E+02
-3.605346E+02		1.145126E+02		2.460219E+02
-4.695190E+02		3.607092E+02		1.088098E+02
-4.930195E+02		4.027879E+02		9.023164E+01
-4.942423E+02		2.353580E+02		2.588843E+02
-4.966856E+02		1.989217E+02		2.977639E+02
-2.594084E+02		5.898659E+02		-3.304575E+02
-3.167184E+02		6.388868E+02		-3.221683E+02
-3.845930E+02		6.634724E+02		-2.788794E+02
-1.735105E+02		5.312577E+02		-3.577472E+02
-1.336450E+02		4.800180E+02		-3.463729E+02
-8.840059E+01		2.786140E+01		6.053920E+01
-2.834576E+02		5.753918E+02		-2.919342E+02
4.005010E+01		4.159469E+01		-8.164479E+01
3.847773E+01		-1.659627E+02		1.274850E+02
-1.607599E+02		1.183927E+02		4.236716E+01
-2.045018E+02		1.672660E+02		3.723578E+01
-2.314963E+02		1.912459E+02		4.025041E+01
6.305931E+02		-1.756123E+02		-4.549807E+02
6.170991E+02		-8.505370E+01		-5.320454E+02
6.004851E+02		-3.095840E+01		-5.695267E+02
6.378728E+02		-2.641850E+02		-3.736877E+02
6.303476E+02		-3.071674E+02		-3.231802E+02
2.938175E+00		-4.180260E+02		4.150878E+02
-4.124023E+01		-3.516696E+02		3.929098E+02
-6.741586E+01		-3.181117E+02		3.855275E+02
3.628276E+01		-4.886136E+02		4.523308E+02
4.258347E+01		-5.249008E+02		4.823173E+02
-6.291423E+01		7.652761E+01		-1.361338E+01
-1.175592E+02		1.620107E+02		-4.445149E+01
-1.784954E+02		2.209255E+02		-4.243010E+01
-2.213533E+02		2.443979E+02		-2.304461E+01
3.866051E+01		-1.159984E+02		7.733787E+01
1.241830E+02		1.977620E+01		-1.439592E+02
-2.149118E+02		-1.044461E+02		3.193579E+02
-4.993599E+02		2.728023E+02		2.265577E+02
-5.050414E+02		2.957555E+02		2.092859E+02
-4.272171E+02		2.690370E+02		1.581801E+02
-4.495758E+02		3.117564E+02		1.378195E+02
-3.332897E+02		5.430368E+02		-2.097471E+02
-3.586574E+02		5.025999E+02		-1.439425E+02
1.227907E+02		3.905500E+02		-5.133407E+02
1.982493E+02		3.968594E+02		-5.951087E+02
1.528412E+02		1.887855E+00		-1.547291E+02
2.372135E+02		-7.284874E+01		-1.643648E+02
-3.786929E+02		-1.974106E+02		5.761035E+02
-3.554747E+02		-1.261786E+02		4.816533E+02
-3.843236E+02		-2.156777E+02		6.000013E+02
-3.934086E+02		-2.551395E+02		6.485481E+02
-3.377983E+02		-6.869078E+01		4.064891E+02
-3.497644E+02		-1.082124E+02		4.579768E+02
1.561787E+01		-2.309113E+02		2.152934E+02
2.914200E+01		-2.976901E+02		2.685481E+02
-3.808511E+02		1.808915E+02		1.999595E+02
-4.108824E+02		2.390311E+02		1.718513E+02
-2.719817E+02		6.004427E+02		-3.284610E+02
-2.167559E+02		5.669947E+02		-3.502388E+02
-1.218768E+02		7.045361E+01		5.142318E+01
3.479921E+01		-8.136648E+01		4.656727E+01
-7.356406E+01		6.102284E+00		6.746178E+01
-9.672331E+01		1.355366E+02		-3.881325E+01
-1.816509E+02		1.428589E+02		3.879195E+01
-1.409665E+02		9.416868E+01		4.679784E+01
6.246687E+02		-1.308567E+02		-4.938120E+02
6.355370E+02		-2.200334E+02		-4.155036E+02
-1.843659E+01		-3.844684E+02		4.029050E+02
2.141407E+01		-4.527175E+02		4.313035E+02
-3.005572E+02		5.684625E+02		-2.679053E+02
-7.795664E+01		1.079698E+02		-3.001313E+01
-3.728679E+02		-1.794922E+02		5.523601E+02
-3.612147E+02		-1.439721E+02		5.051868E+02
-1.034632E+02		4.741854E+01		5.604469E+01
5.818525E+02		-7.240781E-01		-5.811284E+02
6.107615E+02		-5.928764E+01		-5.514738E+02
-3.214912E+02		-2.875536E+01		3.502465E+02
-2.670891E+02		5.861005E+02		-3.190114E+02
7.303684E+01		2.836005E+01		-1.013969E+02
6.189642E+02		-3.234391E+02		-2.955251E+02
6.361411E+02		-2.866945E+02		-3.494466E+02
2.569643E+02		4.158530E+02		-6.728173E+02
2.684501E+02		4.767189E+02		-7.451691E+02
4.449685E+01		4.048507E+02		-4.493475E+02
1.011169E+01		-1.525073E+02		1.423956E+02
-3.519378E+02		6.565259E+02		-3.045881E+02
-4.076518E+02		6.520014E+02		-2.443496E+02
-2.357471E+02		-8.212366E+01		3.178707E+02
-5.213439E+02		3.317502E+02		1.895936E+02
-4.582232E+02		3.324988E+02		1.257244E+02
-4.405609E+02		2.935289E+02		1.470320E+02
-2.915389E+02		-3.736580E+01		3.289047E+02
3.598173E+01		-1.383084E+02		1.023267E+02
-1.511943E+02		5.061495E+02		-3.549552E+02
-1.240645E+02		4.549821E+02		-3.309177E+02
6.371470E+02		-2.422445E+02		-3.949026E+02
3.124396E+02		-2.089805E+02		-1.034591E+02
6.209800E+02		-1.080054E+02		-5.129746E+02
1.005995E+02		3.921875E+02		-4.927871E+02
LINES 145 435
2		0		29
2		1		31
2		2		136
2		3		36
2		4		141
2		5		53
2		6		74
2		7		155
2		8		50
2		9		26
2		10		56
2		11		58
2		12		59
2		13		62
2		14		64
2		15		66
2		16		145
2		17		153
2		18		75
2		19		78
2		20		133
2		21		138
2		22		86
2		23		88
2		24		92
2		25		143
2		26		146
2		26		150
2		27		135
2		27		31
2		28		95
2		28		29
2		30		135
2		30		110
2		32		100
2		32		101
2		33		100
2		33		128
2		34		91
2		34		90
2		35		101
2		35		36
2		37		102
2		37		103
2		38		103
2		38		140
2		39		140
2		39		141
2		40		142
2		40		157
2		41		142
2		41		53
2		42		104
2		42		105
2		43		137
2		43		94
2		44		137
2		45		105
2		45		52
2		46		52
2		46		155
2		47		130
2		47		131
2		48		108
2		48		109
2		49		109
2		49		50
2		51		110
2		51		111
2		54		112
2		54		113
2		55		112
2		55		56
2		57		113
2		57		58
2		59		147
2		60		114
2		60		115
2		61		114
2		61		62
2		63		64
2		63		148
2		65		96
2		65		66
2		67		117
2		67		136
2		68		116
2		68		144
2		69		144
2		69		145
2		70		117
2		70		152
2		71		152
2		71		153
2		72		132
2		72		120
2		73		136
2		73		128
2		75		151
2		76		122
2		76		123
2		77		122
2		77		78
2		79		124
2		79		125
2		80		134
2		80		156
2		81		134
2		81		133
2		82		139
2		82		154
2		83		139
2		83		138
2		84		126
2		84		127
2		85		126
2		85		86
2		87		127
2		87		88
2		89		129
2		90		121
2		91		92
2		93		151
2		93		119
2		94		104
2		95		146
2		96		97
2		97		147
2		98		115
2		98		149
2		99		149
2		99		148
2		102		157
2		106		108
2		106		130
2		107		111
2		107		131
2		116		136
2		118		123
2		118		132
2		121		129
2		124		156
2		125		154
2		135		150
2		143		151
POINT_DATA 158
scalars NodeType integer
LOOKUP_TABLE default
7
7
7
7
7
7
7
7
7
7
7
7
7
7
7
7
7
7
7
7
7
7
7
7
7
7
0
0
0
0
0
0
0
0
0
0
0
0
0
0
0
0
0
0
9
0
0
0
0
0
0
0
0
0
0
0
0
0
0
0
0
0
0
0
0
0
0
0
0
0
0
0
0
0
9
0
0
0
0
0
0
0
0
0
0
0
0
0
0
9
0
0
0
0
0
0
0
0
0
0
0
0
0
0
0
0
0
0
0
0
0
0
0
0
0
0
0
0
0
9
9
0
0
0
0
0
0
0
0
0
0
0
0
0
0
0
0
0
0
0
0
0
0
0
0
0
0
0
0
0
0
0
0
0
0
0
0
0
CELL_DATA 145
SCALARS SlipSystem integer
LOOKUP_TABLE default
3
3
3
3
1
1
1
1
2
2
2
2
2
2
2
2
1
1
3
3
2
2
2
2
1
1
3
1
3
3
3
3
2
2
3
3
3
3
1
1
3
3
1
1
1
1
1
1
1
1
1
1
1
1
1
1
1
1
1
1
1
2
2
2
2
2
2
2
2
2
2
2
2
2
2
2
2
2
2
2
2
2
2
2
1
1
1
1
1
1
1
1
1
1
3
3
3
3
3
3
3
3
3
2
2
2
2
2
2
2
2
2
2
2
2
2
2
2
2
1
1
1
13
13
1
3
2
2
2
2
2
2
1
2
2
2
2
1
3
3
1
2
2
1
1
