# vtk DataFile Version 1.0
dislocation microstructure
ASCII
DATASET POLYDATA
POINTS 303 float
-1.407136E+02		-2.213016E+02		3.620151E+02
-4.069171E+02		1.959506E+01		3.873221E+02
-2.678171E+02		5.735064E+02		-3.056893E+02
-3.585793E+02		4.159045E+02		-5.732522E+01
2.435975E+02		5.088909E+02		-7.524885E+02
-3.645297E+01		4.790810E+02		-4.426281E+02
1.137360E+01		4.804267E+01		-5.941627E+01
2.977420E+02		-2.208350E+02		-7.690702E+01
-3.705953E+02		-3.364613E+02		7.070566E+02
-2.633774E+02		-5.962946E+01		3.230069E+02
-5.059046E+01		-1.177741E+02		1.683646E+02
-3.709113E+00		-3.770962E+02		3.808053E+02
-5.645235E+02		3.793574E+02		1.851661E+02
-3.703694E+02		9.044315E+01		2.799262E+02
-5.304416E+02		4.354699E+02		9.497178E+01
-5.136564E+02		1.737037E+02		3.399526E+02
-4.002894E+02		6.227393E+02		-2.224499E+02
-1.296146E+02		4.379697E+02		-3.083551E+02
3.132033E+01		-1.863970E+02		1.550767E+02
-2.594066E+02		2.052232E+02		5.418340E+01
5.559540E+02		2.224913E+01		-5.782031E+02
6.021915E+02		-3.324134E+02		-2.697781E+02
-9.943729E+01		-2.899623E+02		3.893996E+02
3.188077E+01		-5.505567E+02		5.186760E+02
-2.457631E+02		2.346175E+02		1.114560E+01
-1.949524E+01		-1.452330E+02		1.647282E+02
-2.327454E+02		-2.097140E+02		4.424594E+02
-9.531431E+01		-3.142549E+02		4.095692E+02
-3.802175E+02		-1.129034E+02		4.931209E+02
-2.673485E+02		6.208093E+02		-3.534608E+02
1.188438E+02		-1.606865E+02		4.184269E+01
-3.735564E+02		-6.468896E+01		4.382454E+02
-2.610101E+01		-4.815337E+02		5.076348E+02
-5.142616E+02		7.658731E+02		-2.516115E+02
2.275364E+02		-2.656446E+02		3.810822E+01
-4.393510E+02		-1.700382E+02		6.093891E+02
6.541300E+02		-2.058621E+02		-4.482679E+02
-3.498657E+02		-3.630653E+02		7.129309E+02
6.319979E+02		-1.403445E+02		-4.916534E+02
-2.874233E+02		3.308009E+02		-4.337763E+01
-4.986364E+02		7.779873E+02		-2.793509E+02
7.596394E+02		5.685723E+01		-8.164967E+02
2.091003E+02		5.109324E+02		-7.200328E+02
-7.307788E+01		8.199129E+02		-7.468351E+02
-3.186492E+02		3.364192E+02		-1.776998E+01
5.948882E+02		-1.483563E+01		-5.800525E+02
5.461941E+02		-5.029619E+02		-4.323221E+01
-5.352478E+02		-1.766018E+02		7.118496E+02
-6.600156E+02		-1.564810E+02		8.164967E+02
-3.792191E+02		-4.372776E+02		8.164967E+02
-3.448373E+02		-3.930541E+02		7.378914E+02
-4.622347E+02		2.474162E+02		2.148185E+02
-3.559893E+02		3.995121E+02		-4.352276E+01
3.298119E+02		-4.019901E+02		7.217816E+01
4.157268E+02		-4.617603E+02		4.603358E+01
4.220068E+00		-5.928501E+02		5.886300E+02
-3.644717E+02		4.796024E+02		-1.151306E+02
6.428996E+02		-3.959955E+02		-2.469041E+02
2.702355E+02		-1.990624E+02		-7.117302E+01
-4.684485E+02		4.431757E+02		2.527272E+01
-5.349437E+02		6.694925E+02		-1.345488E+02
-3.216609E+02		9.688906E+02		-6.472297E+02
1.154103E+02		3.638348E+02		-4.792451E+02
-3.768857E+02		-4.162841E+01		4.185141E+02
-3.964001E+02		-1.406771E+02		5.370772E+02
6.414367E+02		8.495772E+01		-7.263944E+02
6.461859E+02		-4.359608E+02		-2.102251E+02
3.226943E+01		7.172648E+02		-7.495342E+02
1.487506E+02		5.623386E+02		-7.110892E+02
1.087537E+02		-3.178076E+02		2.090539E+02
1.443499E+02		3.759792E+02		-5.203290E+02
4.023209E+02		-9.696701E+02		5.673492E+02
-1.725267E+02		-1.977632E+02		3.702899E+02
6.742400E+02		-2.938754E+02		-3.803646E+02
1.518908E+02		5.285810E+02		-6.804717E+02
-3.008865E+02		-1.144750E+02		4.153615E+02
-2.880835E+01		2.212896E+02		-1.924813E+02
-2.886481E+02		2.768641E+02		1.178400E+01
6.871999E+02		8.747042E+01		-7.746704E+02
-4.175989E+00		-2.030970E+02		2.072730E+02
-2.599153E+02		6.509204E+01		1.948233E+02
3.691365E+02		-4.328154E+02		6.367889E+01
1.094713E+02		-3.492808E+02		2.398094E+02
2.119123E+01		-3.902733E+02		3.690820E+02
5.727705E+01		6.882400E+02		-7.455170E+02
-1.896007E+02		9.042175E+02		-7.146169E+02
9.727450E+01		-3.743170E+02		2.770425E+02
-2.288963E+02		3.706769E+02		-1.417806E+02
7.386174E+02		-5.166797E+02		-2.219376E+02
-4.987621E+02		3.273664E+02		1.713957E+02
-1.926712E+00		-5.424738E+02		5.444005E+02
-1.624948E+02		8.869795E+02		-7.244847E+02
1.658110E+02		-3.019790E+02		1.361681E+02
1.004410E+01		4.037181E+02		-4.137622E+02
5.154660E+01		-3.950913E+02		3.435447E+02
6.501174E+02		1.468411E+02		-7.969585E+02
2.190208E+02		-2.126281E+02		-6.392695E+00
1.420811E+02		-3.198071E+02		1.777260E+02
6.294459E+02		7.122904E+01		-7.006749E+02
7.868926E+01		3.670459E+02		-4.457352E+02
1.762402E+02		5.337665E+02		-7.100067E+02
8.302565E+02		-5.538516E+02		-2.764049E+02
-3.488728E+02		5.190501E+02		-1.701773E+02
-3.351384E+02		6.941219E+01		2.657262E+02
6.557834E+02		1.004666E+02		-7.562500E+02
7.725673E+01		-3.894714E+02		3.122147E+02
-1.053913E+02		-3.490470E+02		4.544383E+02
-3.909299E+02		4.159541E+02		-2.502415E+01
-1.537303E+02		3.498027E+02		-1.960724E+02
6.498943E+02		-3.629619E+02		-2.869324E+02
-5.611781E+02		7.929827E+02		-2.318046E+02
5.942922E+02		-5.008600E+02		-9.343227E+01
-1.489109E+01		-5.092644E+02		5.241555E+02
6.203358E+02		-1.066488E+02		-5.136870E+02
6.125255E+02		-8.192541E+01		-5.306000E+02
1.395765E+02		-1.832531E+02		4.367660E+01
-4.956239E+02		6.724634E+02		-1.768395E+02
-3.202247E+02		7.122840E+02		-3.920594E+02
-1.738366E+01		7.778131E+01		-6.039765E+01
-5.095879E+02		5.640829E+02		-5.449502E+01
-1.831814E+01		1.989271E+02		-1.806090E+02
6.542204E+02		1.226387E+02		-7.768591E+02
-1.841540E+02		3.627101E+02		-1.785561E+02
1.136714E+02		6.588767E+02		-7.725481E+02
-2.682669E+02		5.566116E+02		-2.883447E+02
5.189468E+02		-4.993987E+02		-1.954816E+01
3.618689E+02		-9.379014E+02		5.760325E+02
-3.561291E+02		-4.204834E+02		7.766126E+02
1.379363E+02		-7.689961E+02		6.310598E+02
2.884248E+00		6.922442E+01		-7.210867E+01
-2.995518E+02		6.860064E+02		-3.864546E+02
6.706507E+02		-3.454176E+02		-3.252331E+02
2.371300E+02		-2.902307E+02		5.310070E+01
6.490360E+02		-4.740428E+02		-1.749932E+02
-1.221773E+02		3.299811E+02		-2.078037E+02
4.382237E+01		-2.659215E+02		2.220991E+02
-5.314323E+02		6.417143E+02		-1.102820E+02
-2.925951E+02		-7.703058E+01		3.696257E+02
-2.459105E+02		2.375188E+02		8.391747E+00
-4.629682E+01		2.507731E+02		-2.044763E+02
6.753037E+02		-3.195697E+02		-3.557340E+02
-6.372213E+02		-1.518382E+02		7.890595E+02
-2.450327E+02		-2.017139E+02		4.467467E+02
-1.000924E+03		1.921149E+02		8.088092E+02
-1.017030E+03		2.250615E+02		7.919681E+02
-1.722014E+01		-1.715747E+02		1.887948E+02
6.618658E+00		7.450108E+02		-7.516295E+02
-2.167644E+02		9.201464E+02		-7.033819E+02
7.323163E+01		-9.670244E+01		2.347080E+01
-3.731016E+02		-4.343919E+02		8.074935E+02
-5.129209E+02		6.985749E+02		-1.856541E+02
-2.017629E+02		-1.943250E+02		3.960879E+02
1.732456E+02		-2.733173E+02		1.000717E+02
-2.027763E+02		1.246731E+02		7.810325E+01
-4.244145E+02		6.152696E+02		-1.908550E+02
-2.036296E+00		1.277894E+02		-1.257531E+02
-2.108780E+02		-2.595825E+02		4.704605E+02
4.636575E+02		-4.836912E+02		2.003373E+01
7.111191E+02		-5.044578E+02		-2.066613E+02
-3.365278E+02		3.666757E+02		-3.014795E+01
-4.763094E+02		7.850109E+02		-3.087015E+02
-4.937552E+02		1.777782E+02		3.159770E+02
5.922962E+02		2.729524E+01		-6.195915E+02
-4.662615E+02		6.411573E+02		-1.748958E+02
-2.835857E+02		2.349935E+02		4.859226E+01
-2.794184E+02		-1.658728E+02		4.452912E+02
-5.594378E+02		-1.719895E+02		7.314272E+02
-9.851601E+02		1.686634E+02		8.164967E+02
-3.745355E+02		-9.019109E+01		4.647265E+02
4.243997E+02		-9.898140E+02		5.654143E+02
1.294118E+02		5.914492E+02		-7.208610E+02
-4.198275E+02		4.437467E+02		-2.391921E+01
6.148848E+02		-4.964543E+02		-1.184305E+02
-1.863929E+02		-2.900727E+02		4.764656E+02
-5.361574E+02		7.458801E+02		-2.097227E+02
-6.120252E+02		-1.581334E+02		7.701586E+02
-4.638353E+02		2.131991E+02		2.506362E+02
2.186953E+02		-2.411488E+02		2.245345E+01
2.857806E+01		-6.394079E+02		6.108298E+02
-3.414298E+01		4.568087E+02		-4.226657E+02
-6.239394E+01		-4.119976E+02		4.743915E+02
6.774624E+01		-6.938571E+02		6.261109E+02
-4.822400E+02		5.118580E+02		-2.961797E+01
-3.560910E+00		-5.647614E+02		5.683223E+02
-2.354461E+02		7.650960E+01		1.589365E+02
-3.449760E+02		7.370740E+02		-3.920980E+02
-1.070948E+03		3.432653E+02		7.276831E+02
9.488963E+01		-1.331387E+02		3.824904E+01
-2.953788E+02		5.560286E+02		-2.606498E+02
-2.978621E+02		3.048826E+02		-7.020470E+00
8.453902E+01		6.538980E+02		-7.384370E+02
6.456809E+02		-1.796070E+02		-4.660739E+02
4.753134E+01		-6.674612E+02		6.199298E+02
-2.396809E+02		5.506878E+02		-3.110069E+02
-1.086828E+02		-3.410775E+02		4.497602E+02
-2.902625E+02		6.102980E+01		2.292327E+02
1.004657E+02		-7.313898E+02		6.309241E+02
-4.219321E+02		-1.617363E+02		5.836684E+02
1.245473E+02		6.919494E+02		-8.164967E+02
-5.836188E+02		-1.661955E+02		7.498143E+02
-5.252797E+02		6.119480E+02		-8.666833E+01
-5.032424E+02		4.464730E+02		5.676943E+01
-2.628321E+02		5.931011E+02		-3.302690E+02
-3.637076E+02		4.167450E+02		-5.303737E+01
2.016734E+01		-2.398487E+02		2.196813E+02
-2.158556E+02		9.567877E+01		1.201768E+02
-2.093682E+01		-1.439807E+02		1.649175E+02
-4.606234E+01		-4.391672E+02		4.852295E+02
1.669155E+02		4.252727E+02		-5.921882E+02
6.470266E+02		1.694701E+02		-8.164967E+02
-3.810682E+02		7.633802E+02		-3.823120E+02
-5.334066E+02		7.357387E+02		-2.023321E+02
1.611158E+02		4.002325E+02		-5.613483E+02
4.098919E+01		3.825747E+02		-4.235638E+02
6.564173E+01		-1.796969E+02		1.140552E+02
-2.228122E+02		-2.347591E+02		4.575714E+02
7.769086E+01		-2.949024E+02		2.172115E+02
-4.322604E+02		4.319724E+02		2.879894E-01
-7.628854E+01		2.887211E+02		-2.124325E+02
-1.377900E+02		4.719009E+02		-3.341109E+02
-3.677831E+02		9.834345E+02		-6.156513E+02
6.354328E+02		-3.582302E+02		-2.772027E+02
4.326893E+01		-8.159987E+01		3.833094E+01
-2.114847E+02		5.383237E+02		-3.268391E+02
-3.846649E+02		4.235765E+02		-3.891167E+01
7.804884E+01		-1.679477E+02		8.989881E+01
-4.078399E+02		9.923060E+02		-5.844661E+02
-4.536719E+02		4.740953E+02		-2.042342E+01
6.035784E+02		4.040048E+01		-6.439789E+02
1.177631E+02		6.218085E+02		-7.395716E+02
-3.677206E+02		4.521875E+02		-8.446686E+01
1.347240E+02		5.736697E+02		-7.083938E+02
-3.842450E+02		-1.704129E+01		4.012863E+02
-4.972225E+02		5.378034E+02		-4.058087E+01
8.510741E+02		-5.631396E+02		-2.879344E+02
-5.919886E+00		1.602464E+02		-1.543265E+02
1.621973E+02		4.903961E+02		-6.525933E+02
-2.792670E+02		3.466559E+02		-6.738891E+01
-4.509912E+01		7.954060E+02		-7.503069E+02
6.691750E+02		-2.627461E+02		-4.064290E+02
3.840921E+02		-9.547563E+02		5.706642E+02
-1.030621E+03		2.580977E+02		7.725229E+02
-1.014624E+02		8.429855E+02		-7.415231E+02
-3.281188E+02		5.421184E+02		-2.139996E+02
-1.592849E+02		4.988359E+02		-3.395510E+02
-4.768537E+02		1.893972E+02		2.874565E+02
-4.539322E+02		7.863057E+02		-3.323735E+02
-5.830075E+02		8.312062E+02		-2.481986E+02
-5.731973E+02		8.170127E+02		-2.438154E+02
7.653227E+02		-5.279771E+02		-2.373456E+02
5.725065E+02		-5.033192E+02		-6.918732E+01
6.181916E+02		5.791399E+01		-6.761056E+02
6.379933E+02		-4.872379E+02		-1.507553E+02
-1.565798E+02		-3.165316E+02		4.731114E+02
-1.040637E+03		2.836170E+02		7.570204E+02
-1.312509E+02		8.653853E+02		-7.341344E+02
2.634363E+02		-3.312594E+02		6.782308E+01
7.563603E+02		5.592492E+01		-8.122852E+02
-4.803387E+02		3.001458E+02		1.801930E+02
-3.582293E+02		4.998983E+02		-1.416690E+02
1.680236E+02		-2.395199E+02		7.149631E+01
1.757191E+02		-8.027792E+02		6.270601E+02
3.165389E+02		-9.067198E+02		5.901809E+02
-2.501414E+02		3.668494E+02		-1.167079E+02
-1.886880E+01		7.707179E+02		-7.518491E+02
-4.961963E+02		-1.797953E+02		6.759916E+02
4.922210E+02		-4.931074E+02		8.863376E-01
-8.536832E+01		-3.803623E+02		4.657306E+02
-2.761130E+02		9.502835E+02		-6.741704E+02
-2.199452E+02		2.153238E+02		4.621395E+00
-1.994905E+02		1.486651E+02		5.082542E+01
-2.930695E+02		-1.397595E+02		4.328290E+02
6.675891E+02		-4.838911E+02		-1.836979E+02
-4.685795E+02		2.734948E+02		1.950847E+02
-9.859107E+01		3.102879E+02		-2.116969E+02
-2.664221E+02		3.590359E+02		-9.261382E+01
-4.586497E+02		-1.759660E+02		6.346157E+02
2.911275E+02		-8.893100E+02		5.981825E+02
7.176911E+02		7.387419E+01		-7.915653E+02
1.566836E+02		-2.118883E+02		5.520465E+01
-2.459628E+02		9.357682E+02		-6.898054E+02
9.540580E+01		-1.396295E+02		4.422373E+01
5.796819E+02		1.474248E+01		-5.944244E+02
1.108168E+02		6.170355E+02		-7.278523E+02
-2.792605E+02		6.516330E+02		-3.723725E+02
-2.024354E+02		1.774392E+02		2.499618E+01
2.645447E+02		-8.708035E+02		6.062587E+02
8.002432E+02		-5.419381E+02		-2.583051E+02
6.035257E+02		-4.832185E+01		-5.552039E+02
-5.365276E+02		7.064979E+02		-1.699703E+02
-1.050307E+03		3.064769E+02		7.438299E+02
6.617745E+02		-2.321664E+02		-4.296081E+02
6.843008E+01		-1.077128E+02		3.928275E+01
-4.183839E+02		9.958298E+02		-5.774459E+02
2.207210E+02		-8.388573E+02		6.181363E+02
-1.840834E+02		5.207535E+02		-3.366701E+02
-5.300401E+02		3.582835E+02		1.717566E+02
1.676296E+02		4.520868E+02		-6.197164E+02
-4.255749E+02		7.820659E+02		-3.564910E+02
-1.573745E+01		4.289865E+02		-4.132490E+02
2.936612E+02		-3.672197E+02		7.355850E+01
2.335122E+02		-1.935417E+02		-3.997055E+01
-5.054515E+00		1.000895E+02		-9.503501E+01
LINES 293 879
2		0		72
2		1		232
2		2		202
2		3		203
2		4		42
2		5		179
2		6		129
2		7		58
2		8		37
2		9		137
2		10		206
2		11		83
2		12		296
2		13		103
2		14		201
2		15		161
2		16		154
2		17		219
2		18		214
2		19		164
2		20		282
2		21		221
2		22		27
2		23		90
2		24		77
2		25		206
2		26		142
2		26		151
2		26		215
2		27		194
2		28		64
2		28		168
2		29		202
2		29		284
2		30		281
2		30		115
2		31		168
2		31		63
2		32		207
2		32		112
2		33		174
2		33		40
2		34		177
2		34		132
2		35		276
2		35		197
2		36		291
2		36		191
2		37		50
2		38		191
2		38		113
2		39		237
2		39		189
2		40		160
2		41		257
2		42		100
2		43		242
2		43		238
2		44		189
2		44		159
2		45		288
2		45		282
2		46		250
2		46		125
2		47		265
2		47		166
2		48		141
2		49		149
2		50		127
2		51		176
2		51		273
2		52		159
2		52		107
2		52		203
2		53		300
2		53		81
2		54		157
2		54		81
2		55		178
2		55		183
2		56		230
2		56		259
2		57		221
2		57		66
2		58		301
2		59		217
2		59		201
2		60		289
2		60		136
2		61		268
2		61		220
2		62		70
2		62		99
2		63		232
2		64		197
2		65		104
2		65		98
2		66		133
2		67		146
2		67		84
2		68		100
2		68		170
2		69		216
2		69		82
2		69		97
2		70		212
2		71		240
2		71		169
2		72		151
2		73		239
2		73		140
2		74		231
2		74		236
2		75		137
2		75		271
2		76		120
2		76		139
2		77		164
2		77		138
2		77		189
2		78		278
2		78		104
2		79		204
2		79		145
2		80		195
2		80		184
2		82		86
2		83		94
2		84		190
2		85		147
2		85		91
2		86		105
2		87		122
2		87		263
2		88		249
2		88		158
2		89		258
2		89		296
2		90		183
2		90		112
2		91		255
2		92		97
2		92		152
2		93		213
2		93		299
2		94		105
2		95		209
2		95		121
2		96		301
2		96		177
2		98		251
2		99		213
2		101		287
2		101		234
2		102		259
2		102		243
2		103		195
2		104		121
2		106		194
2		106		267
2		107		217
2		108		134
2		108		122
2		109		131
2		109		221
2		110		248
2		110		174
2		111		250
2		111		172
2		113		114
2		114		288
2		115		279
2		116		163
2		116		150
2		117		185
2		117		130
2		118		302
2		119		200
2		119		233
2		120		235
2		123		229
2		123		198
2		124		193
2		124		188
2		125		266
2		126		240
2		126		262
2		127		149
2		128		261
2		128		196
2		130		284
2		131		140
2		132		256
2		133		272
2		133		252
2		134		274
2		135		216
2		135		204
2		136		200
2		138		269
2		139		218
2		141		175
2		142		165
2		143		167
2		143		144
2		144		241
2		145		206
2		146		264
2		147		280
2		148		222
2		148		187
2		150		211
2		152		260
2		153		270
2		153		205
2		154		163
2		155		302
2		155		235
2		156		215
2		156		173
2		157		266
2		158		272
2		160		246
2		161		245
2		162		282
2		162		228
2		165		271
2		166		199
2		170		229
2		171		224
2		171		227
2		172		252
2		173		253
2		174		211
2		175		199
2		176		245
2		178		192
2		179		299
2		180		267
2		180		207
2		181		196
2		181		192
2		182		233
2		182		227
2		184		205
2		185		210
2		186		290
2		187		281
2		188		243
2		190		283
2		193		223
2		194		253
2		203		230
2		203		224
2		208		297
2		208		212
2		210		298
2		211		289
2		214		225
2		218		274
2		219		244
2		220		226
2		222		292
2		223		295
2		225		281
2		226		293
2		228		251
2		231		283
2		236		297
2		237		275
2		238		264
2		239		291
2		241		254
2		242		255
2		244		295
2		246		298
2		247		248
2		249		287
2		254		290
2		256		300
2		257		278
2		258		273
2		260		279
2		261		294
2		262		277
2		263		275
2		265		276
2		268		280
2		269		285
2		270		285
2		277		286
2		281		292
2		286		294
POINT_DATA 303
scalars NodeType integer
LOOKUP_TABLE default
7
7
7
7
7
7
7
7
7
7
7
7
7
7
7
7
7
7
7
7
7
7
7
7
7
7
0
0
0
0
0
0
0
0
0
0
0
0
0
0
0
8
0
0
0
0
0
0
8
8
0
0
0
0
0
0
0
0
0
0
0
0
0
0
0
0
0
0
0
0
0
0
0
0
0
0
0
0
0
0
0
0
0
0
0
0
0
0
0
0
0
0
0
0
0
0
0
0
0
0
0
0
0
0
0
0
0
0
0
0
0
0
0
0
0
0
0
0
9
0
0
0
0
0
0
0
0
0
0
9
0
0
0
0
0
0
0
0
0
0
0
0
0
0
0
0
0
0
0
0
0
0
0
0
0
0
0
0
0
0
0
0
0
0
0
0
0
8
0
8
0
0
0
0
0
0
0
0
0
0
0
0
0
0
0
0
8
0
0
0
0
0
0
0
0
0
0
0
8
0
0
0
0
0
0
0
0
0
0
8
0
0
0
0
0
0
0
0
0
0
0
0
9
0
0
0
0
0
0
0
0
0
0
0
8
0
0
0
0
0
0
0
0
0
0
0
0
8
0
0
0
0
0
0
0
0
0
0
0
0
0
0
0
0
0
0
0
0
0
0
0
0
0
0
0
0
0
0
0
0
0
0
0
0
0
0
0
0
0
0
0
0
0
8
0
0
0
0
0
0
0
0
0
CELL_DATA 293
SCALARS SlipSystem integer
LOOKUP_TABLE default
3
3
3
3
1
1
1
1
2
2
2
2
2
2
2
2
1
1
3
3
2
2
2
2
1
1
2
3
1
2
3
3
3
3
1
1
3
3
3
3
3
3
1
1
3
3
1
1
2
1
1
3
3
3
2
1
1
1
3
3
1
1
1
1
3
3
3
2
2
2
2
3
2
1
1
1
1
1
1
1
1
1
3
3
1
2
2
3
3
1
1
1
1
3
3
3
3
3
1
1
1
1
3
2
1
1
1
1
3
1
1
1
1
2
2
3
3
3
2
3
2
2
3
3
2
2
2
2
1
1
1
2
3
3
2
2
2
2
1
3
1
1
1
1
1
2
1
1
1
1
3
1
2
2
1
1
2
1
3
3
2
3
3
1
1
1
1
1
1
1
1
1
1
1
3
3
3
3
3
3
1
1
1
1
1
1
1
2
1
1
3
1
1
2
1
3
3
3
3
2
3
3
2
1
1
1
3
1
1
3
3
1
1
2
2
1
3
3
1
1
1
2
3
2
3
3
2
3
1
3
3
1
1
13
3
2
1
1
3
3
1
1
3
3
2
3
1
3
1
1
1
1
1
3
1
1
3
3
3
3
1
1
1
1
3
1
3
1
1
3
1
1
1
1
1
3
1
2
1
1
2
2
1
1
1
3
3
1
2
2
1
1
1
