# vtk DataFile Version 1.0
dislocation microstructure
ASCII
DATASET POLYDATA
POINTS 276 float
-1.407136E+02		-2.213016E+02		3.620151E+02
-4.069171E+02		1.959506E+01		3.873221E+02
-2.678171E+02		5.735064E+02		-3.056893E+02
-3.585793E+02		4.159045E+02		-5.732522E+01
2.435975E+02		5.088909E+02		-7.524885E+02
-3.645297E+01		4.790810E+02		-4.426281E+02
1.137360E+01		4.804267E+01		-5.941627E+01
2.977420E+02		-2.208350E+02		-7.690702E+01
-3.705953E+02		-3.364613E+02		7.070566E+02
-2.633774E+02		-5.962946E+01		3.230069E+02
-5.059046E+01		-1.177741E+02		1.683646E+02
-3.709113E+00		-3.770962E+02		3.808053E+02
-5.645235E+02		3.793574E+02		1.851661E+02
-3.703694E+02		9.044315E+01		2.799262E+02
-5.304416E+02		4.354699E+02		9.497178E+01
-5.136564E+02		1.737037E+02		3.399526E+02
-4.002894E+02		6.227393E+02		-2.224499E+02
-1.296146E+02		4.379697E+02		-3.083551E+02
3.132033E+01		-1.863970E+02		1.550767E+02
-2.594066E+02		2.052232E+02		5.418340E+01
5.559540E+02		2.224913E+01		-5.782031E+02
6.021915E+02		-3.324134E+02		-2.697781E+02
-9.943729E+01		-2.899623E+02		3.893996E+02
3.188077E+01		-5.505567E+02		5.186760E+02
-2.457631E+02		2.346175E+02		1.114560E+01
-1.949524E+01		-1.452330E+02		1.647282E+02
-1.021186E+02		-2.109109E+02		3.130295E+02
-4.587657E+02		-2.785522E+01		4.866210E+02
-1.134536E+02		-2.186450E+02		3.320986E+02
-1.349385E+02		1.858389E+02		-5.090043E+01
-4.323000E+02		-2.080307E+01		4.531031E+02
1.235631E+02		-4.075490E+02		2.839858E+02
-3.963690E+02		6.581617E+02		-2.617927E+02
-4.060202E+02		2.892520E+02		1.167682E+02
7.383617E+02		-3.923661E+02		-3.459956E+02
-3.757245E+02		2.583613E+02		1.173632E+02
7.861922E+02		-3.364758E+01		-7.525446E+02
-5.728457E+02		4.476471E+02		1.251986E+02
-6.496692E+02		1.272185E+02		5.224507E+02
-1.234444E+02		-1.954057E+02		3.188501E+02
6.951600E+02		-6.434130E+01		-6.308187E+02
7.039466E+00		-1.551708E+02		1.481314E+02
7.596384E+02		-2.522280E+02		-5.074104E+02
2.823693E+02		-9.373332E+01		-1.886359E+02
7.100757E+02		-9.617382E+01		-6.139018E+02
7.774605E+02		2.933071E+01		-8.067912E+02
-5.923489E+02		-7.198445E+00		5.995473E+02
-6.089811E+02		-1.462357E+02		7.552168E+02
-4.885964E+02		-3.077018E+02		7.962982E+02
-4.056264E+02		-3.407564E+02		7.463828E+02
-5.442070E+02		2.292593E+02		3.149477E+02
7.483071E+02		-2.064715E+02		-5.418356E+02
7.287254E+02		-1.445373E+02		-5.841881E+02
-2.630131E+02		1.063363E+03		-8.003498E+02
-5.338497E+02		-2.710704E+02		8.049201E+02
8.770445E+02		-3.388862E+02		-5.381582E+02
2.412602E+02		-5.013043E+02		2.600441E+02
2.480842E+02		-5.361837E+02		2.880995E+02
-5.312665E+02		3.650759E+02		1.661906E+02
-4.118790E+02		5.979664E+02		-1.860875E+02
-6.289073E+00		3.760185E+02		-3.697294E+02
-5.993008E+01		4.676331E+02		-4.077030E+02
-6.164545E+02		4.864005E+02		1.300540E+02
-5.265049E+02		4.087709E+02		1.177340E+02
2.406431E+02		3.648983E+02		-6.055414E+02
-5.354914E+02		4.256614E+02		1.098301E+02
8.864753E+02		-2.596259E+02		-6.268494E+02
-2.352976E+02		1.040557E+03		-8.052598E+02
-5.059246E+02		3.722821E+02		1.336425E+02
2.623957E+02		4.107146E+02		-6.731104E+02
3.958880E+02		-5.693381E+02		1.734501E+02
-1.772803E+02		-1.573537E+02		3.346339E+02
3.302310E+02		-1.761886E+02		-1.540424E+02
-1.108065E+02		5.142341E+02		-4.034276E+02
7.620551E+02		-5.462804E+02		-2.157747E+02
-8.336621E+01		2.025581E+02		-1.191919E+02
-2.218718E+02		2.703221E+02		-4.845028E+01
7.672583E+02		-3.382706E+02		-4.289878E+02
8.854250E+02		-3.013479E+02		-5.840771E+02
8.207399E+02		-7.958565E+01		-7.411543E+02
7.063912E+02		-1.583996E+01		-6.905513E+02
8.022524E+02		-4.236662E+02		-3.785862E+02
-3.584436E+01		-2.306928E+02		2.665372E+02
-1.427174E+02		5.546376E+02		-4.119202E+02
-1.934766E+01		-3.413160E+02		3.606637E+02
-5.959420E+01		-3.071810E+02		3.667752E+02
1.561764E+02		-5.924377E+02		4.362613E+02
7.646909E+01		-5.802314E+02		5.037623E+02
-5.365872E+02		2.851082E+02		2.514790E+02
2.647683E+02		-5.207380E+02		2.559698E+02
-2.132252E+02		6.133504E+02		-4.001252E+02
8.721002E+02		-1.839511E+02		-6.881491E+02
4.333774E+01		-8.159700E+01		3.825925E+01
-4.152387E+01		4.182236E+02		-3.766997E+02
2.499739E+02		3.880933E+02		-6.380672E+02
-5.109780E+02		3.475282E+02		1.634498E+02
-1.077531E+02		1.601592E+02		-5.240611E+01
8.838416E+02		-2.363070E+02		-6.475345E+02
-5.444416E+02		2.535258E+02		2.909158E+02
7.698416E+02		-5.173501E+02		-2.524915E+02
-9.896887E+01		4.287909E+02		-3.298221E+02
-3.488038E+02		9.521201E+01		2.535917E+02
6.612689E+02		-1.744463E+01		-6.438243E+02
1.270922E+02		3.644842E+01		-1.635406E+02
-6.157954E+02		-5.969304E+01		6.754885E+02
-4.315824E+02		3.108311E+02		1.207513E+02
-6.171006E+02		-9.762257E+01		7.147232E+02
-5.745234E+02		-2.220443E+02		7.965677E+02
2.052588E+02		-4.694758E+02		2.642170E+02
-5.562625E+02		2.745538E+00		5.535170E+02
1.565934E+02		-4.318495E+02		2.752561E+02
3.004691E+02		-1.189765E+02		-1.814926E+02
-6.647193E+02		5.376575E+02		1.270618E+02
-1.522936E+01		-1.688160E+02		1.840454E+02
-3.217524E+02		6.419583E+02		-3.202059E+02
1.978516E+01		-1.398205E+02		1.200354E+02
-3.967863E+01		1.125355E+02		-7.285688E+01
-4.256983E+02		5.406463E+02		-1.149480E+02
-4.336491E+01		8.159584E+01		-3.823092E+01
2.509130E+02		-5.733165E+01		-1.935813E+02
-1.489121E+02		2.587318E+02		-1.098197E+02
-5.305525E+01		1.545627E+02		-1.015075E+02
8.797794E+02		-2.126871E+02		-6.670923E+02
8.614354E+02		-3.723652E+02		-4.890703E+02
3.504235E+02		-5.536254E+02		2.032019E+02
2.124603E+02		-5.710405E+02		3.585802E+02
-3.440261E+02		6.740203E+02		-3.299942E+02
3.070206E+00		6.912557E+01		-7.219577E+01
-6.074673E+02		-2.970377E+01		6.371711E+02
-5.692513E+02		4.967726E+00		5.642836E+02
3.243186E+02		-2.265638E+02		-9.775477E+01
6.526972E+02		-3.675879E+02		-2.851092E+02
7.581382E+02		2.135081E+00		-7.602733E+02
4.359764E+02		-5.835410E+02		1.475646E+02
8.698663E+02		-3.562411E+02		-5.136252E+02
-2.501557E+02		-9.367214E+01		3.438279E+02
7.475204E+02		-4.270354E+02		-3.204850E+02
-6.042210E+02		5.054786E+01		5.536731E+02
-5.795664E+02		2.209790E+01		5.574685E+02
1.782028E+01		-3.117958E+02		2.939755E+02
-1.894923E+01		-2.655599E+02		2.845091E+02
1.958620E+02		3.108211E+02		-5.066830E+02
-5.988248E+02		4.695570E+02		1.292677E+02
-6.280399E+01		1.049870E+02		-4.218301E+01
-5.209520E+02		3.245568E+02		1.963952E+02
5.851063E+01		-1.180169E+02		5.950627E+01
-4.446863E+02		-3.304999E+02		7.751862E+02
-8.372603E+01		1.333440E+02		-4.961798E+01
-8.590543E+01		4.509526E+02		-3.650472E+02
5.794569E+02		2.000574E+01		-5.994627E+02
-3.257088E+02		1.798678E+02		1.458411E+02
8.370349E+02		-4.019977E+02		-4.350372E+02
9.024119E+01		3.137339E+02		-4.039751E+02
8.615130E+02		-1.548524E+02		-7.066606E+02
6.138563E+02		-6.213291E+02		7.472773E+00
-1.815389E+02		9.980356E+02		-8.164967E+02
5.325353E+02		-6.117308E+02		7.919550E+01
6.782262E+02		-3.560261E+01		-6.426236E+02
-6.142370E+02		-1.214829E+02		7.357198E+02
7.641627E+02		-2.778983E+02		-4.862645E+02
-7.593001E+02		6.381504E+02		1.211497E+02
6.660249E+02		-6.161000E+02		-4.992496E+01
-2.133467E+02		-1.304783E+02		3.438250E+02
-2.445182E+02		2.535650E+02		-9.046726E+00
-1.462652E+02		-1.787394E+02		3.250046E+02
5.861323E+02		-6.200577E+02		3.392535E+01
-3.995493E+02		4.574976E+02		-5.794826E+01
8.207987E+02		-4.142974E+02		-4.065013E+02
-7.280619E+02		6.059471E+02		1.221147E+02
7.117230E+02		-5.993277E+02		-1.123953E+02
-2.821523E+02		1.079978E+03		-7.978259E+02
1.744669E+02		8.739110E+00		-1.832060E+02
7.670694E+02		-3.032688E+02		-4.638007E+02
2.325568E+02		-5.533603E+02		3.208035E+02
-5.767461E+01		-2.315102E+02		2.891849E+02
1.732160E+02		3.030921E+02		-4.763081E+02
-3.564161E+02		6.494329E+02		-2.930168E+02
-4.205699E+02		5.059054E+02		-8.533552E+01
4.817537E+01		-1.786470E+02		1.304717E+02
-3.196090E+02		1.447063E+02		1.749027E+02
-2.943475E+02		6.333540E+02		-3.390065E+02
-6.674399E+02		1.980547E+02		4.693852E+02
-3.785340E+02		6.727555E+02		-2.942216E+02
-5.056387E+01		8.080194E+01		-3.023807E+01
-7.676606E+02		6.465531E+02		1.211074E+02
-6.903610E+02		5.656100E+02		1.247510E+02
3.162625E+02		-1.447924E+02		-1.714700E+02
7.821140E+02		3.438266E+01		-8.164967E+02
-1.882257E+01		-1.937517E+02		2.125743E+02
1.474747E+02		3.010534E+02		-4.485281E+02
-3.281878E+02		1.134187E+02		2.147691E+02
5.992660E+01		1.806380E+01		-7.799040E+01
-5.017392E+02		-2.085299E+01		5.225922E+02
2.718997E+02		4.710897E+02		-7.429893E+02
7.484166E+02		-5.689282E+02		-1.794884E+02
-4.234190E+02		5.681388E+02		-1.447198E+02
-4.935378E+02		3.477589E+02		1.457789E+02
-2.784801E+02		5.980190E+02		-3.195389E+02
-2.770705E+02		6.401048E+02		-3.630343E+02
1.198421E+02		-5.919937E+02		4.721516E+02
1.870490E+02		-5.848383E+02		3.977894E+02
-1.829432E+01		-1.465189E+02		1.648132E+02
9.331210E+01		-3.838802E+02		2.905681E+02
-6.296346E+02		8.791478E+01		5.417198E+02
2.737856E+02		4.312816E+02		-7.050672E+02
-9.363335E+01		4.828312E+02		-3.891978E+02
-4.014871E+02		6.478158E+02		-2.463287E+02
-6.407479E+02		5.116782E+02		1.290697E+02
-3.090920E+02		1.105122E+03		-7.960297E+02
5.766009E+01		-1.623986E+02		1.047385E+02
7.399104E+02		-6.294657E+00		-7.336158E+02
-3.463936E+02		2.203268E+02		1.260668E+02
-4.565900E+02		3.283321E+02		1.282580E+02
-1.135517E+02		2.340939E+02		-1.205422E+02
7.584496E+02		-3.737236E+02		-3.847260E+02
-3.027395E+02		6.501065E+02		-3.473670E+02
6.258438E+02		-3.529010E+02		-2.729428E+02
9.849210E+00		-7.511894E+01		6.526973E+01
-2.467097E+02		2.363565E+02		1.035324E+01
-3.807735E+02		4.326477E+02		-5.187427E+01
1.779177E+02		-4.478781E+02		2.699604E+02
-5.554069E+02		-2.472315E+02		8.026384E+02
2.150192E+01		-1.156373E+02		9.413543E+01
-2.205943E+02		2.355750E+02		-1.498068E+01
-4.124174E+02		4.824312E+02		-7.001387E+01
6.902954E+02		-6.090744E+02		-8.122093E+01
2.938910E+02		-5.340934E+02		2.402024E+02
4.808327E+02		-5.982702E+02		1.174375E+02
8.500925E+02		-3.883581E+02		-4.617344E+02
-4.131124E+02		-2.659627E+00		4.157721E+02
5.771689E+01		-3.527757E+02		2.950588E+02
7.784120E+02		-4.298277E+02		-3.485843E+02
7.586184E+01		4.881156E+01		-1.246734E+02
-6.135919E+02		2.615032E+02		3.520887E+02
6.093862E+01		-1.431818E+02		8.224314E+01
-1.761269E+02		5.863836E+02		-4.102567E+02
6.402134E+02		-6.201121E+02		-2.010134E+01
3.690313E+02		-5.599684E+02		1.909371E+02
-6.632079E+02		1.680838E+02		4.951241E+02
7.311047E+02		-5.863512E+02		-1.447535E+02
3.801156E+01		3.407656E+02		-3.787772E+02
2.262982E+02		3.378369E+02		-5.641350E+02
-5.314785E+02		2.136228E+02		3.178557E+02
-3.873139E+02		6.451723E+02		-2.578585E+02
-1.891223E+02		2.722495E+02		-8.312715E+01
-2.104576E+02		1.020720E+03		-8.102620E+02
7.214177E+02		-3.895689E+02		-3.318487E+02
3.355559E+02		-2.062627E+02		-1.292931E+02
6.178372E+02		6.069692E+00		-6.239069E+02
7.388346E+02		-1.747624E+02		-5.640722E+02
7.594959E+02		-4.498486E+02		-3.096473E+02
2.156052E+02		-2.352921E+01		-1.920760E+02
-6.473183E+02		2.536358E+02		3.936825E+02
7.680621E+02		-4.770526E+02		-2.910095E+02
-5.960490E+02		-1.828742E+02		7.789231E+02
-5.749569E+02		2.502294E+02		3.247275E+02
-1.928246E+02		2.255496E+02		-3.272502E+01
-1.645522E+02		2.088329E+02		-4.428068E+01
8.439587E+02		-1.179031E+02		-7.260555E+02
3.188428E+02		-5.430118E+02		2.241690E+02
5.597425E+02		-6.168169E+02		5.707443E+01
-6.648213E+02		2.267018E+02		4.381195E+02
-4.001992E+02		6.120975E+02		-2.118983E+02
-5.292345E+02		3.052182E+02		2.240163E+02
5.069956E+02		-6.056079E+02		9.861237E+01
-2.436935E+02		6.296521E+02		-3.859586E+02
-5.375647E+01		4.429093E+02		-3.891528E+02
1.200320E+02		3.046576E+02		-4.246895E+02
2.125116E+02		3.228056E+02		-5.353172E+02
6.779023E+02		-3.777126E+02		-3.001897E+02
1.004780E+02		4.597075E+01		-1.464488E+02
5.904591E+01		3.931135E+01		-9.835727E+01
6.433459E+01		3.257264E+02		-3.900610E+02
-5.269938E+02		-1.066009E+01		5.376539E+02
-2.532906E+01		-2.112984E+02		2.366274E+02
6.871336E+02		-2.011949E+01		-6.670141E+02
LINES 268 804
2		0		28
2		1		229
2		2		197
2		3		219
2		4		193
2		5		61
2		6		127
2		7		130
2		8		49
2		9		135
2		10		201
2		11		84
2		12		58
2		13		101
2		14		65
2		15		242
2		16		206
2		17		100
2		18		178
2		19		218
2		20		149
2		21		216
2		22		85
2		23		87
2		24		218
2		25		201
2		26		39
2		26		28
2		26		174
2		27		192
2		27		30
2		29		257
2		29		96
2		30		229
2		31		202
2		31		110
2		32		182
2		32		206
2		33		35
2		33		105
2		34		214
2		34		246
2		35		211
2		36		132
2		36		79
2		37		65
2		37		142
2		38		238
2		38		203
2		39		164
2		40		157
2		40		44
2		41		201
2		41		115
2		42		51
2		42		159
2		43		119
2		43		111
2		44		52
2		45		132
2		45		187
2		46		128
2		46		129
2		47		254
2		47		158
2		48		146
2		48		54
2		49		146
2		50		242
2		50		98
2		50		255
2		51		249
2		52		249
2		53		170
2		53		67
2		54		221
2		55		78
2		55		134
2		56		89
2		56		108
2		57		173
2		57		89
2		58		95
2		59		195
2		59		262
2		60		240
2		60		93
2		61		266
2		62		207
2		62		142
2		63		68
2		63		65
2		64		241
2		64		94
2		66		78
2		66		97
2		67		245
2		68		196
2		69		204
2		69		94
2		70		133
2		70		237
2		71		162
2		71		164
2		72		186
2		72		247
2		73		205
2		73		83
2		74		194
2		74		99
2		75		121
2		75		213
2		76		163
2		76		244
2		77		214
2		77		172
2		79		258
2		80		210
2		80		275
2		81		231
2		81		167
2		82		174
2		82		274
2		82		140
2		83		235
2		84		85
2		86		199
2		86		200
2		87		199
2		88		98
2		88		263
2		89		226
2		90		235
2		90		265
2		91		153
2		91		122
2		92		145
2		93		266
2		95		196
2		95		144
2		96		147
2		97		122
2		99		253
2		100		148
2		101		190
2		102		248
2		102		157
2		102		275
2		103		171
2		103		270
2		104		106
2		104		128
2		105		212
2		106		158
2		107		221
2		107		254
2		108		220
2		109		129
2		109		138
2		109		273
2		110		220
2		111		186
2		112		207
2		112		185
2		113		201
2		113		188
2		114		176
2		114		180
2		115		222
2		116		121
2		116		118
2		117		195
2		117		177
2		119		251
2		120		244
2		120		213
2		123		134
2		123		228
2		124		237
2		124		259
2		125		200
2		125		173
2		126		182
2		126		215
2		130		247
2		131		216
2		131		269
2		132		210
2		133		227
2		135		162
2		136		246
2		136		231
2		136		250
2		137		203
2		137		138
2		139		230
2		139		140
2		141		175
2		141		268
2		143		147
2		143		183
2		144		263
2		145		234
2		148		205
2		149		248
2		150		179
2		150		211
2		151		228
2		151		167
2		152		267
2		152		272
2		153		258
2		154		236
2		154		165
2		155		245
2		156		260
2		156		264
2		159		172
2		160		168
2		160		184
2		161		236
2		161		225
2		163		218
2		165		260
2		166		219
2		166		224
2		168		185
2		169		239
2		169		225
2		170		208
2		171		251
2		175		189
2		176		243
2		177		224
2		178		209
2		179		190
2		180		198
2		180		197
2		180		215
2		181		261
2		181		238
2		188		274
2		189		267
2		191		271
2		192		273
2		193		204
2		194		239
2		196		212
2		198		265
2		202		230
2		206		243
2		209		234
2		217		222
2		218		223
2		223		256
2		226		259
2		227		264
2		232		270
2		232		271
2		233		252
2		233		255
2		240		272
2		241		268
2		243		262
2		246		269
2		250		253
2		252		261
2		256		257
POINT_DATA 276
scalars NodeType integer
LOOKUP_TABLE default
7
7
7
7
7
7
7
7
7
7
7
7
7
7
7
7
7
7
7
7
7
7
7
7
7
7
0
0
0
0
0
0
0
0
0
0
0
0
0
0
0
0
0
0
0
0
0
0
0
0
0
0
0
0
0
0
0
0
0
0
0
0
0
0
0
0
0
0
0
0
0
0
0
0
0
0
0
0
0
0
0
0
0
0
0
0
0
0
0
0
0
0
9
0
0
0
0
0
0
0
0
0
0
0
0
0
0
0
0
0
0
0
0
0
0
0
0
0
9
0
0
0
0
0
0
0
0
9
0
0
0
0
0
0
0
0
0
0
0
0
0
0
0
0
0
0
0
0
0
0
0
0
0
0
0
8
0
0
0
0
0
0
0
0
0
0
0
0
0
0
0
0
0
0
0
0
0
0
0
0
0
0
0
9
8
0
0
8
0
0
0
9
0
0
0
0
0
0
0
0
0
0
0
0
0
0
0
0
8
0
0
0
0
0
0
0
0
9
0
0
0
0
0
0
0
0
0
0
0
0
0
0
0
0
0
0
0
0
0
0
0
0
0
0
0
0
0
0
0
0
0
0
0
0
0
0
0
0
0
0
0
0
0
0
0
0
0
0
0
0
0
0
0
0
0
0
CELL_DATA 268
SCALARS SlipSystem integer
LOOKUP_TABLE default
3
3
3
3
1
1
1
1
2
2
2
2
2
2
2
2
1
1
3
3
2
2
2
2
1
1
2
3
1
3
3
1
1
3
3
3
3
3
2
2
1
1
2
2
2
1
1
1
1
2
1
1
1
1
1
1
1
1
1
1
1
2
2
2
2
2
2
2
2
3
1
1
1
1
1
2
2
2
3
3
2
2
2
3
3
1
1
1
1
1
3
3
1
1
2
2
1
3
1
1
1
1
2
2
1
1
1
1
1
1
3
3
3
3
1
1
2
3
3
2
2
1
2
3
1
2
2
2
2
3
3
1
1
1
2
2
3
1
1
3
1
2
1
1
2
2
1
3
1
1
2
2
2
2
2
2
3
2
1
3
3
1
1
1
2
2
1
1
1
3
3
3
3
1
3
3
2
2
1
1
2
2
3
3
1
2
2
3
1
2
3
2
1
1
1
3
3
1
1
1
1
3
3
1
2
2
2
2
2
1
1
2
1
1
1
1
1
1
1
1
1
1
3
1
3
3
1
1
1
1
1
1
1
3
3
2
1
3
3
1
1
2
1
1
3
1
1
2
1
3
2
3
1
1
1
1
1
1
1
1
1
1
1
3
2
1
1
1
