# vtk DataFile Version 1.0
dislocation microstructure
ASCII
DATASET POLYDATA
POINTS 291 float
-1.407136E+02		-2.213016E+02		3.620151E+02
-4.069171E+02		1.959506E+01		3.873221E+02
-2.678171E+02		5.735064E+02		-3.056893E+02
-3.585793E+02		4.159045E+02		-5.732522E+01
2.435975E+02		5.088909E+02		-7.524885E+02
-3.645297E+01		4.790810E+02		-4.426281E+02
1.137360E+01		4.804267E+01		-5.941627E+01
2.977420E+02		-2.208350E+02		-7.690702E+01
-3.705953E+02		-3.364613E+02		7.070566E+02
-2.633774E+02		-5.962946E+01		3.230069E+02
-5.059046E+01		-1.177741E+02		1.683646E+02
-3.709113E+00		-3.770962E+02		3.808053E+02
-5.645235E+02		3.793574E+02		1.851661E+02
-3.703694E+02		9.044315E+01		2.799262E+02
-5.304416E+02		4.354699E+02		9.497178E+01
-5.136564E+02		1.737037E+02		3.399526E+02
-4.002894E+02		6.227393E+02		-2.224499E+02
-1.296146E+02		4.379697E+02		-3.083551E+02
3.132033E+01		-1.863970E+02		1.550767E+02
-2.594066E+02		2.052232E+02		5.418340E+01
5.559540E+02		2.224913E+01		-5.782031E+02
6.021915E+02		-3.324134E+02		-2.697781E+02
-9.943729E+01		-2.899623E+02		3.893996E+02
3.188077E+01		-5.505567E+02		5.186760E+02
-2.457631E+02		2.346175E+02		1.114560E+01
-1.949524E+01		-1.452330E+02		1.647282E+02
-1.683600E+02		-2.284112E+02		3.967711E+02
1.007668E+03		-4.031789E+02		-6.044887E+02
-4.157626E+02		-8.188857E+01		4.976511E+02
-2.819998E+02		6.230463E+02		-3.410465E+02
-3.395248E+02		3.182383E+02		2.128650E+01
-3.988334E+02		-5.198814E+01		4.508215E+02
6.550988E+01		-4.768190E+02		4.113091E+02
-4.669398E+02		7.046438E+02		-2.377040E+02
-3.618867E+02		3.406478E+02		2.123889E+01
8.375413E+02		-4.801525E+02		-3.573888E+02
-3.183954E+02		2.943132E+02		2.408225E+01
-2.652127E+02		2.309169E+02		3.429580E+01
4.734779E+02		-1.259866E+02		-3.474914E+02
-8.337375E+02		1.360987E+02		6.976388E+02
-4.316372E+02		7.688038E+02		-3.371666E+02
7.883129E+02		-3.053900E+01		-7.577739E+02
4.632653E+01		-2.191944E+02		1.728678E+02
9.702303E+02		-3.328972E+02		-6.373331E+02
4.252928E+02		-4.282694E+01		-3.824658E+02
4.227246E+02		1.248877E+02		-5.476123E+02
8.473728E+02		-7.996361E+01		-7.674092E+02
-5.601658E+02		-9.951722E+01		6.596830E+02
-7.365260E+02		-5.064674E+01		7.871728E+02
-4.096704E+02		-4.068263E+02		8.164967E+02
-3.729609E+02		-3.769892E+02		7.499501E+02
-5.083814E+02		2.595919E+02		2.487896E+02
9.606465E+02		-2.676971E+02		-6.929493E+02
9.379292E+02		-1.820939E+02		-7.558353E+02
9.136447E+02		-4.778656E+02		-4.357791E+02
1.006502E+02		-6.157320E+02		5.150818E+02
1.001908E+03		-4.123062E+02		-5.896014E+02
1.293431E+02		-5.618760E+02		4.325330E+02
5.136494E+02		-2.938651E+02		-2.197843E+02
-4.638056E+02		4.157373E+02		4.806838E+01
-4.765914E+02		6.394627E+02		-1.628713E+02
-2.925346E+02		8.155923E+02		-5.230578E+02
2.765082E+01		4.715372E+02		-4.991880E+02
8.613093E+02		-4.813566E+02		-3.799527E+02
-4.364028E+02		-9.776131E+01		5.341641E+02
4.652886E+02		1.898305E+02		-6.551191E+02
3.629296E+02		5.435561E+01		-4.172852E+02
1.015406E+03		-3.190174E+02		-6.963888E+02
2.399668E+02		5.478218E+02		-7.877886E+02
6.102712E+01		-2.923810E+02		2.313538E+02
4.730445E+02		3.003741E+02		-7.734185E+02
4.388076E+02		-8.061355E+02		3.673279E+02
-2.075616E+02		-2.023335E+02		4.098951E+02
5.120018E+02		-2.357742E+02		-2.762276E+02
1.637348E+01		5.477529E+02		-5.641263E+02
-2.734770E+02		-1.213336E+02		3.948105E+02
-4.797982E+01		2.184692E+02		-1.704894E+02
-2.721114E+02		3.185849E+02		-4.647354E+01
9.714246E+02		-4.427891E+02		-5.286354E+02
1.013584E+03		-3.769736E+02		-6.366102E+02
-2.836344E+02		9.503334E+01		1.886010E+02
3.878881E+02		-3.343479E+02		-5.354019E+01
5.815933E+01		-3.172683E+02		2.591090E+02
1.499260E+01		-3.849675E+02		3.699749E+02
-4.174109E+01		6.374841E+02		-5.957430E+02
1.639140E+01		-4.090310E+02		3.926396E+02
5.298300E+01		-3.388070E+02		2.858240E+02
1.278178E+02		-6.258656E+02		4.980478E+02
6.557313E+01		-5.939218E+02		5.283487E+02
-5.371381E+02		3.222613E+02		2.148768E+02
1.412063E+02		-5.871369E+02		4.459306E+02
-1.884451E+02		7.653481E+02		-5.769030E+02
9.914381E+02		-2.067624E+02		-7.846757E+02
9.222918E+02		-1.561267E+02		-7.661650E+02
3.496093E+01		-3.733692E+02		3.384083E+02
4.758223E+02		2.328871E+02		-7.087094E+02
8.145906E+02		-5.114382E+01		-7.634468E+02
8.697582E+02		-1.015717E+02		-7.681865E+02
-6.830780E+02		-5.385476E+01		7.369327E+02
1.012088E+03		-2.863341E+02		-7.257539E+02
-2.489880E+02		3.121525E+02		-6.316448E+01
8.105160E+02		-4.767320E+02		-3.337840E+02
-1.924203E+02		4.067063E+02		-2.142860E+02
-3.389443E+02		8.115034E+01		2.577940E+02
6.710640E+02		3.542754E+01		-7.064916E+02
4.543082E+01		-3.579093E+02		3.124785E+02
-7.520912E+01		-3.318844E+02		4.070935E+02
-3.992037E+02		3.728719E+02		2.633175E+01
-7.334645E+02		-1.232619E+01		7.457907E+02
-7.570203E+02		-5.947638E+01		8.164967E+02
1.188254E+02		-5.447912E+02		4.259657E+02
-8.118351E+02		9.560565E+01		7.162295E+02
9.305516E+01		-5.106444E+02		4.175893E+02
4.576988E+02		-9.614099E+01		-3.615579E+02
4.420942E+02		-6.948515E+01		-3.726090E+02
5.998776E+01		-1.997553E+02		1.397675E+02
1.454640E+02		-6.070333E+02		4.615693E+02
6.915100E+01		-1.778290E+02		1.086780E+02
-3.333199E+01		8.121624E+01		-4.788425E+01
-4.694081E+02		5.560732E+02		-8.666511E+01
-3.851802E+01		2.020751E+02		-1.635571E+02
3.777970E+02		2.778169E+01		-4.055787E+02
-1.671107E+02		3.361381E+02		-1.690273E+02
4.772854E+02		2.646531E+02		-7.419385E+02
1.005323E+03		-2.510496E+02		-7.542730E+02
4.539517E+02		-3.484382E+02		-1.055135E+02
3.772488E+02		-7.799301E+02		4.026812E+02
-3.863069E+02		-3.927247E+02		7.790316E+02
2.018458E+02		-6.740340E+02		4.721881E+02
3.635038E+00		6.882305E+01		-7.245809E+01
-3.168272E+02		6.764375E+02		-3.596103E+02
5.152153E+02		-2.651695E+02		-2.500458E+02
3.168762E+02		-2.781748E+02		-3.870134E+01
6.413525E+02		-4.009779E+02		-2.403746E+02
-1.332063E+02		3.007531E+02		-1.675468E+02
4.846403E+02		-8.241305E+02		3.394903E+02
-4.774791E+02		6.184033E+02		-1.409241E+02
-2.788197E+02		-8.701950E+01		3.658392E+02
3.585219E+02		7.540115E+01		-4.339230E+02
-6.536423E+01		2.421362E+02		-1.767720E+02
-7.071346E+02		-3.910707E+01		7.462417E+02
-6.491413E+02		-6.924692E+01		7.183882E+02
-2.300895E+02		-1.813290E+02		4.114185E+02
-8.531481E+02		1.794469E+02		6.737012E+02
3.692661E+02		8.513023E+01		-4.543963E+02
-3.714448E+00		-1.722138E+02		1.759283E+02
-7.478492E+01		6.738777E+02		-5.990928E+02
-2.253319E+02		7.866911E+02		-5.613593E+02
7.336141E+01		-1.116055E+02		3.824405E+01
-4.015497E+02		-4.030306E+02		8.045803E+02
-4.268338E+02		8.061111E+02		-3.792773E+02
9.663053E+02		-3.005096E+02		-6.657957E+02
5.690560E+02		4.036804E+01		-6.094240E+02
-2.558462E+02		1.546934E+02		1.011528E+02
-4.254637E+02		6.406553E+02		-2.151916E+02
-1.889578E+01		1.353850E+02		-1.164893E+02
9.656017E+02		-1.720910E+02		-7.935107E+02
4.325270E+02		-3.491331E+02		-8.339396E+01
7.109263E+02		-4.454654E+02		-2.654609E+02
4.716082E+02		2.105215E+02		-6.821297E+02
-8.617463E+02		4.261514E+02		4.355949E+02
-7.231642E+02		-4.476330E+01		7.679275E+02
9.726279E+02		-3.706147E+02		-6.020132E+02
-4.435943E+02		6.640574E+02		-2.204632E+02
-2.944008E+02		2.599192E+02		3.448166E+01
-2.511540E+02		-1.585334E+02		4.096873E+02
-2.755348E+02		2.796554E+02		-4.120597E+00
1.015847E+03		-3.488341E+02		-6.670127E+02
-1.709380E+02		-2.272107E+02		3.981487E+02
5.514605E+02		-8.627532E+02		3.112927E+02
6.342550E+02		4.560310E+01		-6.798581E+02
-4.133314E+02		4.506372E+02		-3.730575E+01
-8.762629E+02		4.788159E+02		3.974470E+02
-4.443760E+02		7.269978E+02		-2.826218E+02
-1.847286E+02		3.698293E+02		-1.851007E+02
-4.994041E+02		2.311954E+02		2.682087E+02
9.731565E+02		-4.097229E+02		-5.634336E+02
1.495316E+02		-6.310598E+02		4.815282E+02
8.927003E+02		-1.249052E+02		-7.677951E+02
-4.031873E+01		-3.611180E+02		4.014367E+02
-4.246385E+02		7.458424E+02		-3.212039E+02
-4.537892E+02		5.129910E+02		-5.920176E+01
6.515064E+01		-2.015556E+02		1.364050E+02
-2.690966E+02		1.100396E+02		1.590570E+02
-3.579038E+02		7.154518E+02		-3.575480E+02
-8.831787E+02		2.958622E+02		5.873165E+02
-4.498576E+02		7.558720E+02		-3.060144E+02
-1.905931E+02		4.342694E+02		-2.436763E+02
-9.034015E+02		5.108122E+02		3.925893E+02
-8.632038E+02		4.568601E+02		4.063437E+02
4.873988E+02		-1.562043E+02		-3.311945E+02
9.933667E+02		-1.768700E+02		-8.164967E+02
5.081657E+01		-2.266753E+02		1.758588E+02
-1.012250E+02		-3.006741E+02		4.018991E+02
-3.029270E+02		8.496901E+01		2.179580E+02
1.770518E+02		-6.558293E+02		4.787775E+02
-4.624460E+02		-1.070702E+02		5.695163E+02
2.595776E+02		5.569190E+02		-8.164967E+02
-6.021570E+02		-8.674757E+01		6.889045E+02
-4.765814E+02		5.963722E+02		-1.197908E+02
-4.950997E+02		4.294393E+02		6.566040E+01
-2.719438E+02		5.969873E+02		-3.250434E+02
-4.634886E+02		7.334768E+02		-2.699882E+02
1.657674E+01		-1.951095E+02		1.785327E+02
-2.596747E+02		1.294377E+02		1.302370E+02
-1.938513E+01		-1.450456E+02		1.644307E+02
3.384270E+01		-4.354050E+02		4.015623E+02
-7.866812E+02		5.586480E+01		7.308164E+02
4.404319E+02		3.760648E+02		-8.164967E+02
-3.825104E+02		7.309515E+02		-3.484411E+02
-4.615847E+02		6.879422E+02		-2.263575E+02
8.385773E+01		-1.848715E+02		1.010138E+02
5.104400E+02		-8.357474E+02		3.253074E+02
-2.777370E+02		2.262238E+02		5.151315E+01
-4.332149E+02		3.975568E+02		3.565812E+01
-9.312839E+01		2.699089E+02		-1.767805E+02
-3.214943E+02		8.237480E+02		-5.022536E+02
6.083712E+02		-3.638921E+02		-2.444792E+02
4.305532E+01		-8.160827E+01		3.855295E+01
-2.684089E+02		2.625182E+02		5.890732E+00
-3.837842E+02		4.245183E+02		-4.073404E+01
7.186547E+01		-1.387547E+02		6.688920E+01
-2.614963E+02		2.964655E+02		-3.496922E+01
-4.361526E+02		4.809190E+02		-4.476640E+01
4.530821E+02		1.638195E+02		-6.169016E+02
4.584378E+02		3.470168E+02		-8.054546E+02
5.300037E+02		-8.466120E+02		3.166083E+02
-3.961703E+02		-1.392064E+01		4.100909E+02
1.974216E+00		-3.845734E+02		3.825992E+02
8.927543E+02		-4.801756E+02		-4.125787E+02
-2.411992E+01		1.648619E+02		-1.407420E+02
8.707428E+01		-1.544639E+02		6.738965E+01
-1.096332E+02		7.066210E+02		-5.969878E+02
4.049579E+02		-7.921620E+02		3.872041E+02
-8.685045E+02		2.235205E+02		6.449840E+02
-1.477728E+02		7.374115E+02		-5.896387E+02
4.372989E+02		1.408418E+02		-5.781407E+02
-4.973766E+02		2.050781E+02		2.922985E+02
-4.528686E+02		7.028410E+02		-2.499724E+02
-2.276419E+02		3.506255E+02		-1.229836E+02
7.559200E+02		-4.633290E+02		-2.925910E+02
4.748032E+02		-3.464520E+02		-1.283512E+02
6.024780E+02		4.838940E+01		-6.508674E+02
9.510718E+02		-2.254869E+02		-7.255849E+02
-1.387397E+02		-2.733011E+02		4.120408E+02
7.498961E+02		-4.140510E+00		-7.457556E+02
-5.300353E+02		3.038098E+02		2.262255E+02
-2.283019E+02		3.202703E+02		-9.196836E+01
-1.647015E+02		3.147092E+02		-1.500076E+02
2.265665E+02		-6.922286E+02		4.656621E+02
3.341747E+02		-7.591262E+02		4.249515E+02
-8.791779E+02		3.743245E+02		5.048534E+02
-5.285717E+02		-1.063282E+02		6.348998E+02
-4.027744E+02		8.233899E+02		-4.206155E+02
-2.642960E+02		8.050716E+02		-5.407756E+02
4.067468E+02		1.108646E+02		-5.176114E+02
6.766210E+02		-4.266757E+02		-2.499453E+02
-4.963321E+02		-1.096704E+02		6.060025E+02
6.007408E+01		-2.624531E+02		2.023790E+02
7.189786E+02		1.376991E+01		-7.327485E+02
9.405894E+02		-4.736243E+02		-4.669651E+02
-7.571932E+02		1.578811E+01		7.414050E+02
-9.921784E+00		5.948530E+02		-5.849313E+02
-2.969518E+02		6.496374E+02		-3.526856E+02
-1.909389E+02		3.501562E+02		-1.592172E+02
-2.617541E+02		1.895805E+02		7.217360E+01
-8.843714E+02		3.357427E+02		5.486287E+02
2.924346E+02		-7.360686E+02		4.436340E+02
7.847414E+02		-4.714685E+02		-3.132728E+02
4.001709E+02		-5.584457E+00		-3.945865E+02
-4.723131E+02		6.656747E+02		-1.933616E+02
9.720716E+02		-4.383551E+02		-5.337165E+02
-2.539369E+02		3.403695E+02		-8.643264E+01
-8.776748E+02		2.600067E+02		6.176682E+02
5.019881E+02		-1.954231E+02		-3.065650E+02
5.848045E+01		-1.076888E+02		4.920833E+01
-3.653808E+02		8.292429E+02		-4.638621E+02
2.601651E+02		-7.157750E+02		4.556098E+02
-1.723124E+02		4.531838E+02		-2.808714E+02
-8.709073E+02		4.019951E+02		4.689121E+02
-5.465759E+02		3.504370E+02		1.961388E+02
3.878791E+02		9.739114E+01		-4.852702E+02
2.933368E+01		5.085950E+02		-5.379287E+02
-4.104487E+02		7.462323E+02		-3.357836E+02
-1.507892E+00		4.595969E+02		-4.580890E+02
5.018345E+02		-3.253732E+02		-1.764612E+02
3.485239E+02		-3.091272E+02		-3.939671E+01
2.956358E+02		-2.436331E+02		-5.200269E+01
9.555592E+02		-1.709281E+02		-7.846311E+02
-1.962345E+02		3.202082E+02		-1.239736E+02
-1.912733E+01		1.120747E+02		-9.294738E+01
LINES 282 846
2		0		26
2		1		227
2		2		201
2		3		220
2		4		68
2		5		284
2		6		129
2		7		287
2		8		50
2		9		137
2		10		205
2		11		228
2		12		280
2		13		103
2		14		200
2		15		237
2		16		154
2		17		278
2		18		115
2		19		37
2		20		152
2		21		217
2		22		193
2		23		88
2		24		219
2		25		205
2		26		168
2		26		244
2		27		79
2		27		56
2		28		31
2		28		64
2		29		201
2		29		263
2		30		36
2		30		34
2		31		227
2		32		206
2		32		112
2		33		210
2		33		202
2		34		107
2		35		101
2		35		63
2		36		164
2		37		219
2		38		190
2		38		113
2		39		143
2		39		111
2		40		283
2		40		186
2		40		150
2		41		245
2		41		96
2		42		192
2		42		115
2		42		203
2		43		162
2		43		151
2		44		269
2		44		114
2		45		255
2		45		236
2		46		96
2		46		97
2		47		198
2		47		252
2		48		161
2		48		109
2		49		149
2		50		127
2		51		246
2		51		175
2		52		151
2		52		243
2		53		243
2		53		93
2		54		229
2		54		260
2		55		88
2		55		87
2		57		90
2		57		110
2		58		285
2		58		131
2		59		214
2		59		200
2		60		270
2		60		136
2		61		254
2		61		216
2		62		282
2		62		284
2		63		229
2		64		196
2		65		224
2		65		159
2		66		121
2		66		138
2		67		99
2		67		167
2		68		197
2		69		258
2		69		82
2		70		225
2		70		123
2		71		135
2		71		233
2		72		168
2		72		142
2		73		131
2		73		274
2		74		282
2		74		262
2		75		165
2		75		137
2		76		120
2		76		139
2		77		166
2		77		272
2		78		271
2		79		167
2		80		194
2		80		183
2		81		286
2		81		157
2		82		86
2		83		228
2		83		94
2		84		262
2		84		146
2		85		228
2		85		206
2		86		105
2		87		177
2		89		246
2		89		280
2		90		116
2		91		235
2		91		147
2		92		156
2		92		124
2		93		178
2		93		288
2		94		105
2		95		159
2		95		123
2		97		178
2		98		140
2		98		141
2		99		124
2		100		247
2		100		222
2		101		268
2		102		187
2		102		174
2		103		194
2		104		259
2		104		170
2		106		193
2		106		179
2		107		214
2		108		261
2		108		140
2		110		112
2		111		207
2		113		114
2		115		117
2		115		182
2		116		177
2		117		221
2		118		290
2		119		199
2		119		181
2		120		230
2		121		269
2		122		264
2		122		134
2		122		174
2		125		241
2		125		157
2		126		233
2		126		250
2		127		149
2		128		249
2		128		195
2		130		263
2		130		184
2		132		286
2		132		287
2		133		217
2		133		256
2		134		248
2		134		215
2		135		212
2		136		199
2		138		144
2		139		215
2		140		161
2		141		198
2		142		165
2		143		234
2		144		281
2		145		205
2		145		203
2		146		232
2		147		254
2		148		231
2		148		218
2		150		253
2		152		242
2		153		265
2		153		204
2		154		163
2		155		290
2		155		230
2		156		288
2		158		256
2		158		240
2		160		279
2		160		189
2		162		176
2		163		210
2		164		213
2		166		219
2		169		226
2		170		242
2		171		220
2		171		223
2		172		189
2		172		188
2		173		238
2		173		180
2		175		237
2		176		271
2		177		195
2		179		228
2		180		283
2		181		223
2		182		211
2		183		204
2		184		209
2		185		266
2		185		273
2		186		202
2		187		278
2		190		274
2		191		288
2		192		258
2		193		244
2		196		257
2		207		261
2		208		225
2		209		283
2		210		238
2		210		270
2		211		231
2		212		226
2		213		265
2		216		276
2		218		275
2		219		222
2		221		275
2		224		236
2		232		235
2		234		273
2		239		264
2		239		272
2		240		268
2		241		285
2		245		259
2		247		289
2		248		289
2		249		277
2		250		267
2		251		266
2		251		279
2		252		257
2		253		276
2		255		281
2		267		277
POINT_DATA 291
scalars NodeType integer
LOOKUP_TABLE default
7
7
7
7
7
7
7
7
7
7
7
7
7
7
7
7
7
7
7
7
7
7
7
7
7
7
0
0
0
0
0
0
0
0
0
0
0
0
0
0
0
0
0
0
0
0
0
0
0
8
0
0
0
0
0
0
8
0
0
0
0
0
0
0
0
0
0
0
0
0
0
0
0
0
0
0
0
0
8
0
0
0
0
0
0
0
0
0
0
0
0
0
0
0
0
0
0
0
0
0
0
0
0
0
0
0
0
0
0
8
0
0
0
0
0
0
0
0
9
0
0
0
0
0
0
0
0
0
0
9
0
0
0
0
0
0
0
0
0
0
0
0
0
0
0
0
0
0
0
0
0
0
0
0
0
0
0
0
0
0
0
0
0
0
0
0
0
0
0
8
0
0
0
0
0
0
0
0
0
0
0
0
0
0
0
0
0
0
8
0
0
8
0
0
0
0
0
8
0
0
0
0
0
0
0
0
0
0
8
0
0
0
0
0
0
0
0
0
9
0
0
0
0
0
0
0
0
0
0
0
0
0
0
0
0
0
0
0
0
0
0
0
0
0
0
0
0
0
0
0
0
0
0
0
0
0
0
0
0
0
8
0
0
0
0
0
0
0
0
0
0
0
0
0
0
0
0
0
0
0
0
0
0
0
0
0
0
0
0
0
0
CELL_DATA 282
SCALARS SlipSystem integer
LOOKUP_TABLE default
3
3
3
3
1
1
1
1
2
2
2
2
2
2
2
2
1
1
3
3
2
2
2
2
1
1
2
1
2
2
3
3
3
3
2
2
3
3
3
3
3
2
2
2
2
3
1
1
1
1
2
3
1
2
2
2
1
3
1
1
1
1
1
1
2
2
3
3
2
2
2
2
2
2
1
1
1
1
2
2
2
2
3
3
1
1
2
2
3
3
1
1
1
1
2
3
1
1
1
1
2
2
1
2
2
1
1
1
1
2
2
1
1
1
1
2
2
3
3
3
3
1
2
2
2
1
1
2
2
2
1
1
3
3
2
2
2
2
3
1
1
2
2
2
3
2
1
1
2
3
3
2
1
1
2
1
1
2
2
2
3
3
2
1
1
3
1
1
1
3
3
1
3
3
3
3
1
3
2
1
1
1
1
1
2
1
1
3
3
1
1
2
2
1
3
1
3
1
3
2
3
2
1
1
3
3
1
1
3
3
1
2
2
2
1
3
3
2
2
2
1
1
1
1
2
3
1
2
3
3
1
1
1
1
2
1
1
3
1
3
3
2
3
1
1
3
1
1
1
2
1
3
1
1
3
1
3
3
1
2
1
1
1
1
1
1
1
3
3
2
1
2
1
1
1
1
1
1
3
1
1
1
