# vtk DataFile Version 1.0
dislocation microstructure
ASCII
DATASET POLYDATA
POINTS 154 float
-1.407136E+02		-2.213016E+02		3.620151E+02
-4.069171E+02		1.959506E+01		3.873221E+02
-2.678171E+02		5.735064E+02		-3.056893E+02
-3.585793E+02		4.159045E+02		-5.732522E+01
2.435975E+02		5.088909E+02		-7.524885E+02
-3.645297E+01		4.790810E+02		-4.426281E+02
1.137360E+01		4.804267E+01		-5.941627E+01
2.977420E+02		-2.208350E+02		-7.690702E+01
-3.705953E+02		-3.364613E+02		7.070566E+02
-2.633774E+02		-5.962946E+01		3.230069E+02
-5.059046E+01		-1.177741E+02		1.683646E+02
-3.709113E+00		-3.770962E+02		3.808053E+02
-5.645235E+02		3.793574E+02		1.851661E+02
-3.703694E+02		9.044315E+01		2.799262E+02
-5.304416E+02		4.354699E+02		9.497178E+01
-5.136564E+02		1.737037E+02		3.399526E+02
-4.002894E+02		6.227393E+02		-2.224499E+02
-1.296146E+02		4.379697E+02		-3.083551E+02
3.132033E+01		-1.863970E+02		1.550767E+02
-2.594066E+02		2.052232E+02		5.418340E+01
5.559540E+02		2.224913E+01		-5.782031E+02
6.021915E+02		-3.324134E+02		-2.697781E+02
-9.943729E+01		-2.899623E+02		3.893996E+02
3.188077E+01		-5.505567E+02		5.186760E+02
-2.457631E+02		2.346175E+02		1.114560E+01
-1.949524E+01		-1.452330E+02		1.647282E+02
-2.628180E+02		-5.942721E+01		3.222452E+02
-3.361795E+02		-1.318776E+01		3.493673E+02
-1.853921E+02		-1.412594E+02		3.266515E+02
-1.568472E+02		-1.812838E+02		3.381311E+02
-3.291721E+02		-5.293288E+01		3.821050E+02
-3.676204E+02		1.122794E+01		3.563925E+02
-3.456430E+02		5.226054E+02		-1.769624E+02
-3.147789E+02		5.570949E+02		-2.423160E+02
-1.472205E+02		1.889295E+02		-4.170900E+01
-3.643533E+02		4.766332E+02		-1.122800E+02
-3.662369E+02		4.476875E+02		-8.145058E+01
1.577915E+02		3.991546E+02		-5.569460E+02
2.303141E+02		4.110788E+02		-6.413929E+02
2.691936E+02		4.417014E+02		-7.108949E+02
7.615283E+01		3.999133E+02		-4.760661E+02
1.072365E+01		4.263274E+02		-4.370511E+02
1.945273E+02		-3.686611E+01		-1.576612E+02
9.218546E+01		3.041611E+01		-1.226016E+02
5.973508E+01		1.833816E+01		-7.807325E+01
2.712273E+02		-1.183801E+02		-1.528473E+02
3.075599E+02		-1.823650E+02		-1.251949E+02
-3.636535E+02		-1.641122E+02		5.277656E+02
-3.865318E+02		-2.365981E+02		6.231299E+02
-3.927230E+02		-2.794721E+02		6.721951E+02
-3.886012E+02		-3.080075E+02		6.966087E+02
-3.404045E+02		-9.225666E+01		4.326612E+02
2.912958E+02		-1.478742E+02		-1.434216E+02
-1.927719E+01		4.513797E+02		-4.321026E+02
1.985370E+01		-2.633371E+02		2.434834E+02
2.625963E+00		-1.938446E+02		1.912186E+02
-1.735190E+01		-1.536346E+02		1.709865E+02
2.924200E+01		-3.306806E+02		3.014386E+02
2.210280E+01		-3.634136E+02		3.413108E+02
-5.369028E+02		3.519905E+02		1.849123E+02
-3.991249E+02		2.103461E+02		1.887788E+02
-3.697839E+02		1.492377E+02		2.205462E+02
-3.618836E+02		1.151581E+02		2.467255E+02
-4.725322E+02		3.608081E+02		1.117241E+02
-4.943224E+02		4.022688E+02		9.205360E+01
-4.958287E+02		2.361026E+02		2.597261E+02
-4.975831E+02		1.995373E+02		2.980458E+02
-2.588662E+02		5.861573E+02		-3.272910E+02
-3.178057E+02		6.355795E+02		-3.177737E+02
-3.822358E+02		6.591710E+02		-2.769352E+02
-1.753116E+02		5.288339E+02		-3.535223E+02
-1.363064E+02		4.798572E+02		-3.435508E+02
-8.986482E+01		2.726760E+01		6.259722E+01
-2.832055E+02		5.750094E+02		-2.918039E+02
3.635515E+01		-1.650647E+02		1.287096E+02
-1.623797E+02		1.174826E+02		4.489705E+01
-2.053503E+02		1.663861E+02		3.896421E+01
-2.317139E+02		1.905075E+02		4.120640E+01
6.271487E+02		-1.742268E+02		-4.529220E+02
6.139975E+02		-8.401182E+01		-5.299857E+02
5.984536E+02		-3.089091E+01		-5.675627E+02
6.350413E+02		-2.627467E+02		-3.722946E+02
6.287515E+02		-3.059519E+02		-3.227996E+02
5.858815E-01		-4.182929E+02		4.177070E+02
-4.250842E+01		-3.521177E+02		3.946261E+02
-6.795048E+01		-3.185172E+02		3.864677E+02
3.404386E+01		-4.881088E+02		4.540650E+02
4.138410E+01		-5.243005E+02		4.829164E+02
-6.541045E+01		7.502667E+01		-9.616228E+00
-1.211016E+02		1.598636E+02		-3.876193E+01
-1.794852E+02		2.177497E+02		-3.826443E+01
-2.203251E+02		2.414383E+02		-2.111316E+01
3.378382E+01		-1.134816E+02		7.969780E+01
1.240293E+02		1.582387E+01		-1.398532E+02
-2.166740E+02		-1.056957E+02		3.223696E+02
-5.009181E+02		2.733659E+02		2.275522E+02
-5.059764E+02		2.959007E+02		2.100758E+02
-4.308855E+02		2.687872E+02		1.620983E+02
-4.539580E+02		3.120433E+02		1.419147E+02
-3.315110E+02		5.413207E+02		-2.098097E+02
-3.568574E+02		5.012486E+02		-1.443912E+02
1.195727E+02		3.970241E+02		-5.165969E+02
1.941517E+02		4.035165E+02		-5.976682E+02
1.514169E+02		-1.722591E+00		-1.496943E+02
2.341268E+02		-7.539920E+01		-1.587276E+02
-3.754812E+02		-1.996826E+02		5.751638E+02
-3.520202E+02		-1.286250E+02		4.806452E+02
-3.812376E+02		-2.178149E+02		5.990525E+02
-3.907834E+02		-2.567035E+02		6.474868E+02
-3.341468E+02		-7.121210E+01		4.053589E+02
-3.462410E+02		-1.106968E+02		4.569378E+02
1.257553E+01		-2.300448E+02		2.174693E+02
2.602365E+01		-2.964698E+02		2.704461E+02
-3.839693E+02		1.809994E+02		2.029698E+02
-4.144003E+02		2.388350E+02		1.755653E+02
-2.735611E+02		5.986508E+02		-3.250897E+02
-2.177060E+02		5.635263E+02		-3.458203E+02
-1.237692E+02		6.949395E+01		5.427520E+01
3.178491E+01		-8.102532E+01		4.924041E+01
-7.300004E+01		4.825966E+00		6.817407E+01
-1.009101E+02		1.339859E+02		-3.307573E+01
-1.829527E+02		1.419606E+02		4.099211E+01
-1.427867E+02		9.322974E+01		4.955700E+01
6.212650E+02		-1.295507E+02		-4.917144E+02
6.321901E+02		-2.186259E+02		-4.135641E+02
-2.031053E+01		-3.848976E+02		4.052082E+02
1.891867E+01		-4.526420E+02		4.337234E+02
-2.991620E+02		5.667605E+02		-2.675985E+02
-8.253766E+01		1.074171E+02		-2.487941E+01
-3.695680E+02		-1.818434E+02		5.514114E+02
-3.578063E+02		-1.463937E+02		5.042000E+02
-1.052513E+02		4.653871E+01		5.871254E+01
5.810613E+02		-1.058670E+00		-5.800026E+02
6.079907E+02		-5.863120E+01		-5.493595E+02
-3.194616E+02		-3.208485E+01		3.515465E+02
-2.673479E+02		5.836301E+02		-3.162822E+02
6.182510E+02		-3.227286E+02		-2.955223E+02
6.337865E+02		-2.852638E+02		-3.485227E+02
2.520698E+02		4.210820E+02		-6.731518E+02
2.663317E+02		4.771751E+02		-7.435068E+02
4.401213E+01		4.092134E+02		-4.532255E+02
8.239294E+00		-1.491578E+02		1.409185E+02
-3.512103E+02		6.521633E+02		-3.009530E+02
-4.051396E+02		6.498435E+02		-2.447039E+02
-2.370762E+02		-8.353881E+01		3.206150E+02
-5.218660E+02		3.317623E+02		1.901037E+02
-4.622291E+02		3.330305E+02		1.291986E+02
-4.445832E+02		2.933746E+02		1.512086E+02
-2.915246E+02		-3.980609E+01		3.313307E+02
2.801899E+01		-1.357281E+02		1.077091E+02
-1.537960E+02		5.049099E+02		-3.511139E+02
-1.269320E+02		4.562283E+02		-3.292963E+02
6.339257E+02		-2.407822E+02		-3.931435E+02
3.083222E+02		-2.060621E+02		-1.022601E+02
LINES 142 426
2		0		29
2		1		31
2		2		135
2		3		36
2		4		139
2		5		53
2		6		44
2		7		153
2		8		50
2		9		26
2		10		56
2		11		58
2		12		59
2		13		62
2		14		64
2		15		66
2		16		143
2		17		151
2		18		74
2		19		77
2		20		132
2		21		136
2		22		85
2		23		87
2		24		91
2		25		141
2		26		144
2		26		148
2		27		134
2		27		31
2		28		94
2		28		29
2		30		134
2		30		109
2		32		99
2		32		100
2		33		99
2		33		127
2		34		90
2		34		89
2		35		100
2		35		36
2		37		101
2		37		102
2		38		102
2		38		138
2		39		138
2		39		139
2		40		101
2		40		140
2		41		140
2		41		53
2		42		103
2		42		104
2		43		44
2		43		93
2		45		104
2		45		52
2		46		52
2		46		153
2		47		129
2		47		130
2		48		107
2		48		108
2		49		108
2		49		50
2		51		109
2		51		110
2		54		111
2		54		112
2		55		111
2		55		56
2		57		112
2		57		58
2		59		145
2		60		113
2		60		114
2		61		113
2		61		62
2		63		64
2		63		146
2		65		95
2		65		66
2		67		116
2		67		135
2		68		115
2		68		142
2		69		142
2		69		143
2		70		116
2		70		150
2		71		150
2		71		151
2		72		131
2		72		119
2		73		135
2		73		127
2		74		149
2		75		121
2		75		122
2		76		121
2		76		77
2		78		123
2		78		124
2		79		123
2		79		133
2		80		133
2		80		132
2		81		137
2		81		152
2		82		137
2		82		136
2		83		125
2		83		126
2		84		125
2		84		85
2		86		126
2		86		87
2		88		128
2		89		120
2		90		91
2		92		149
2		92		118
2		93		103
2		94		144
2		95		96
2		96		145
2		97		114
2		97		147
2		98		147
2		98		146
2		105		107
2		105		129
2		106		110
2		106		130
2		115		135
2		117		122
2		117		131
2		120		128
2		124		152
2		134		148
2		141		149
POINT_DATA 154
scalars NodeType integer
LOOKUP_TABLE default
7
7
7
7
7
7
7
7
7
7
7
7
7
7
7
7
7
7
7
7
7
7
7
7
7
7
0
0
0
0
0
0
0
0
0
0
0
0
0
0
0
0
0
0
9
0
0
0
0
0
0
0
0
0
0
0
0
0
0
0
0
0
0
0
0
0
0
0
0
0
0
0
0
0
0
0
0
0
0
0
0
0
0
0
0
0
0
0
9
0
0
0
0
0
0
0
0
0
0
0
0
0
0
0
0
0
0
0
0
0
0
0
0
0
0
0
0
0
9
9
0
0
0
0
0
0
0
0
0
0
0
0
0
0
0
0
0
0
0
0
0
0
0
0
0
0
0
0
0
0
0
0
0
0
CELL_DATA 142
SCALARS SlipSystem integer
LOOKUP_TABLE default
3
3
3
3
1
1
1
1
2
2
2
2
2
2
2
2
1
1
3
3
2
2
2
2
1
1
3
1
3
3
3
3
2
2
3
3
3
3
1
1
3
3
1
1
1
1
1
1
1
1
1
1
1
1
1
1
1
1
1
1
2
2
2
2
2
2
2
2
2
2
2
2
2
2
2
2
2
2
2
2
2
2
2
1
1
1
1
1
1
1
1
1
1
3
3
3
3
3
3
3
3
3
2
2
2
2
2
2
2
2
2
2
2
2
2
2
2
2
1
1
1
13
13
1
3
2
2
2
2
2
2
2
2
2
2
1
3
3
1
2
1
1
