# vtk DataFile Version 1.0
dislocation microstructure
ASCII
DATASET POLYDATA
POINTS 168 float
-1.407136E+02		-2.213016E+02		3.620151E+02
-4.069171E+02		1.959506E+01		3.873221E+02
-2.678171E+02		5.735064E+02		-3.056893E+02
-3.585793E+02		4.159045E+02		-5.732522E+01
2.435975E+02		5.088909E+02		-7.524885E+02
-3.645297E+01		4.790810E+02		-4.426281E+02
1.137360E+01		4.804267E+01		-5.941627E+01
2.977420E+02		-2.208350E+02		-7.690702E+01
-3.705953E+02		-3.364613E+02		7.070566E+02
-2.633774E+02		-5.962946E+01		3.230069E+02
-5.059046E+01		-1.177741E+02		1.683646E+02
-3.709113E+00		-3.770962E+02		3.808053E+02
-5.645235E+02		3.793574E+02		1.851661E+02
-3.703694E+02		9.044315E+01		2.799262E+02
-5.304416E+02		4.354699E+02		9.497178E+01
-5.136564E+02		1.737037E+02		3.399526E+02
-4.002894E+02		6.227393E+02		-2.224499E+02
-1.296146E+02		4.379697E+02		-3.083551E+02
3.132033E+01		-1.863970E+02		1.550767E+02
-2.594066E+02		2.052232E+02		5.418340E+01
5.559540E+02		2.224913E+01		-5.782031E+02
6.021915E+02		-3.324134E+02		-2.697781E+02
-9.943729E+01		-2.899623E+02		3.893996E+02
3.188077E+01		-5.505567E+02		5.186760E+02
-2.457631E+02		2.346175E+02		1.114560E+01
-1.949524E+01		-1.452330E+02		1.647282E+02
-2.556176E+02		-5.654512E+01		3.121627E+02
3.009225E+01		-1.672213E+02		1.371291E+02
-1.747316E+02		-1.372956E+02		3.120272E+02
-1.499044E+02		-1.813308E+02		3.312352E+02
-3.516786E+02		-3.541881E+01		3.870974E+02
-3.686316E+02		1.824314E+01		3.503885E+02
-3.581551E+02		5.332577E+02		-1.751026E+02
-3.248556E+02		5.682213E+02		-2.433657E+02
-1.314197E+02		2.090094E+02		-7.758967E+01
-3.736412E+02		4.820201E+02		-1.083789E+02
-3.713655E+02		4.494511E+02		-7.808559E+01
1.839774E+02		3.519508E+02		-5.359282E+02
2.625466E+02		3.684200E+02		-6.309665E+02
2.989111E+02		4.248204E+02		-7.237315E+02
8.562267E+01		3.626805E+02		-4.483032E+02
3.171094E+00		4.096406E+02		-4.128116E+02
2.101509E+02		-1.415085E+01		-1.960000E+02
8.141985E+01		5.679485E+01		-1.382147E+02
5.974714E+01		1.832093E+01		-7.806807E+01
2.969138E+02		-1.093439E+02		-1.875699E+02
3.362034E+02		-1.911862E+02		-1.450172E+02
-3.872782E+02		-1.474435E+02		5.347217E+02
-4.067266E+02		-2.238146E+02		6.305412E+02
-4.074869E+02		-2.736046E+02		6.810915E+02
-3.960887E+02		-3.076618E+02		7.037505E+02
-3.652140E+02		-7.491394E+01		4.401279E+02
3.199495E+02		-1.471540E+02		-1.727955E+02
-2.986907E+01		4.479645E+02		-4.180954E+02
4.190249E+01		-2.706759E+02		2.287734E+02
2.181285E+01		-1.968012E+02		1.749883E+02
6.535039E+02		-2.063984E+02		-4.471055E+02
4.638643E+01		-3.410254E+02		2.946390E+02
3.059854E+01		-3.724225E+02		3.418239E+02
-5.350571E+02		3.538429E+02		1.812142E+02
-3.755942E+02		2.101156E+02		1.654786E+02
-3.521316E+02		1.441256E+02		2.080059E+02
-3.533472E+02		1.103571E+02		2.429901E+02
-4.535371E+02		3.624735E+02		9.106360E+01
-4.870036E+02		4.066658E+02		8.033778E+01
-4.854010E+02		2.309988E+02		2.544022E+02
-4.919242E+02		1.954113E+02		2.965129E+02
6.482508E+02		-1.613293E+02		-4.869215E+02
-3.122062E+02		6.582178E+02		-3.460117E+02
-3.996223E+02		6.891886E+02		-2.895663E+02
-1.608926E+02		5.440120E+02		-3.831194E+02
-1.151534E+02		4.789323E+02		-3.637788E+02
1.851440E+02		6.223114E+00		-1.913671E+02
-2.866508E+02		5.812686E+02		-2.946178E+02
3.725129E+00		6.877448E+01		-7.249961E+01
5.263562E+01		-1.672833E+02		1.146477E+02
-1.518576E+02		1.240755E+02		2.778214E+01
-2.002271E+02		1.730086E+02		2.721849E+01
-2.307567E+02		1.956929E+02		3.506372E+01
6.511967E+02		-1.839256E+02		-4.672711E+02
6.353191E+02		-9.044931E+01		-5.448698E+02
6.112168E+02		-3.007321E+01		-5.811436E+02
6.541878E+02		-2.732946E+02		-3.808932E+02
6.387316E+02		-3.142757E+02		-3.244559E+02
1.716121E+01		-4.160426E+02		3.988814E+02
-3.479907E+01		-3.484476E+02		3.832467E+02
-6.489833E+01		-3.155947E+02		3.804931E+02
4.912171E+01		-4.923850E+02		4.432633E+02
4.894877E+01		-5.285732E+02		4.796244E+02
-5.449853E+01		7.990316E+01		-2.540463E+01
-9.807259E+01		1.750006E+02		-7.692798E+01
-1.726752E+02		2.406842E+02		-6.800893E+01
-2.342789E+02		2.626587E+02		-2.837985E+01
5.613139E+01		-1.219598E+02		6.582841E+01
1.226770E+02		4.478027E+01		-1.674573E+02
-2.059176E+02		-9.827745E+01		3.041950E+02
-4.903834E+02		2.696897E+02		2.206936E+02
-4.983421E+02		2.950159E+02		2.033262E+02
-4.053035E+02		2.697998E+02		1.355037E+02
-4.263043E+02		3.110938E+02		1.152105E+02
-3.433498E+02		5.528537E+02		-2.095039E+02
-3.685769E+02		5.097693E+02		-1.411924E+02
1.417065E+02		3.516740E+02		-4.933804E+02
2.229162E+02		3.568109E+02		-5.797271E+02
1.588878E+02		2.473217E+01		-1.836200E+02
2.551846E+02		-5.785074E+01		-1.973338E+02
-3.979457E+02		-1.841002E+02		5.820460E+02
-3.763389E+02		-1.115344E+02		4.878734E+02
-4.027653E+02		-2.033258E+02		6.060911E+02
-4.089803E+02		-2.465627E+02		6.555431E+02
-3.585037E+02		-5.400929E+01		4.125129E+02
-3.708641E+02		-9.345448E+01		4.643186E+02
3.362536E+01		-2.357349E+02		2.021096E+02
4.718234E+01		-3.053081E+02		2.581258E+02
-3.622276E+02		1.788551E+02		1.833725E+02
-3.898521E+02		2.395366E+02		1.503155E+02
-2.019303E+02		2.558605E+02		-5.393026E+01
-2.131677E+02		5.875018E+02		-3.743341E+02
-1.118337E+02		7.502523E+01		3.680849E+01
4.188612E+01		-8.164038E+01		3.975426E+01
-7.928200E+01		2.273615E+01		5.654585E+01
-7.322254E+01		1.427752E+02		-6.955267E+01
-1.746280E+02		1.486821E+02		2.594585E+01
-1.310079E+02		9.953471E+01		3.147314E+01
6.450259E+02		-1.386081E+02		-5.064178E+02
6.552152E+02		-2.286637E+02		-4.265514E+02
-7.669485E+00		-3.810914E+02		3.887608E+02
3.637037E+01		-4.536869E+02		4.173165E+02
-3.070909E+02		5.771311E+02		-2.700403E+02
-5.349403E+01		1.063071E+02		-5.281306E+01
-3.927018E+02		-1.655838E+02		5.582856E+02
-3.818034E+02		-1.294784E+02		5.112818E+02
-9.464115E+01		5.021772E+01		4.442343E+01
5.854675E+02		1.565561E+00		-5.870331E+02
6.265618E+02		-6.216120E+01		-5.644006E+02
-3.352957E+02		-7.477218E+00		3.427729E+02
-2.660616E+02		6.006014E+02		-3.345398E+02
5.540416E+01		4.721217E+01		-1.026163E+02
6.225720E+02		-3.274633E+02		-2.951087E+02
6.490594E+02		-2.953913E+02		-3.536680E+02
2.874018E+02		3.857602E+02		-6.731620E+02
2.780624E+02		4.772246E+02		-7.552870E+02
4.464460E+01		3.804026E+02		-4.250472E+02
8.889363E+00		-1.664837E+02		1.575944E+02
-3.564847E+02		6.823291E+02		-3.258445E+02
-4.208593E+02		6.604641E+02		-2.396049E+02
-2.303382E+02		-7.429552E+01		3.046338E+02
-5.173514E+02		3.319530E+02		1.853985E+02
-4.367256E+02		3.316486E+02		1.050770E+02
-4.176169E+02		2.938843E+02		1.237326E+02
-2.905863E+02		-2.438056E+01		3.149668E+02
5.745755E+01		-1.454860E+02		8.802850E+01
-1.345269E+02		5.124999E+02		-3.779729E+02
-1.087587E+02		4.456113E+02		-3.368527E+02
6.557070E+02		-2.512791E+02		-4.044279E+02
3.304917E+02		-2.248018E+02		-1.056899E+02
6.408074E+02		-1.149155E+02		-5.258919E+02
1.147657E+02		3.552615E+02		-4.700272E+02
-2.787931E+02		6.282111E+02		-3.494180E+02
2.332175E+02		-3.540902E+01		-1.978085E+02
2.769404E+02		-8.291125E+01		-1.940291E+02
-1.854668E+02		5.669818E+02		-3.815151E+02
2.429143E+02		3.616282E+02		-6.045425E+02
-4.150990E+02		6.786669E+02		-2.635678E+02
-1.968546E+01		-1.450548E+02		1.647402E+02
2.919213E+02		4.506796E+02		-7.426009E+02
2.956529E+02		4.038728E+02		-6.995257E+02
-2.404587E+02		6.013700E+02		-3.609113E+02
LINES 156 468
2		0		29
2		1		31
2		2		136
2		3		36
2		4		141
2		5		53
2		6		74
2		7		155
2		8		50
2		9		26
2		10		164
2		11		58
2		12		59
2		13		62
2		14		64
2		15		66
2		16		145
2		17		153
2		18		75
2		19		78
2		20		133
2		21		138
2		22		86
2		23		88
2		24		92
2		25		164
2		26		146
2		26		150
2		27		143
2		27		75
2		28		95
2		28		29
2		30		135
2		30		110
2		31		135
2		32		100
2		32		101
2		33		100
2		33		128
2		34		91
2		34		90
2		35		101
2		35		36
2		37		102
2		37		103
2		38		140
2		38		162
2		39		165
2		39		166
2		40		142
2		40		157
2		41		142
2		41		53
2		42		72
2		42		159
2		43		137
2		43		94
2		44		137
2		45		52
2		45		160
2		46		52
2		46		155
2		47		130
2		47		131
2		48		108
2		48		109
2		49		109
2		49		50
2		51		110
2		51		111
2		54		112
2		54		113
2		55		112
2		55		143
2		56		125
2		56		79
2		57		113
2		57		58
2		59		147
2		60		114
2		60		115
2		61		114
2		61		62
2		63		64
2		63		148
2		65		96
2		65		66
2		67		124
2		67		79
2		68		144
2		68		158
2		69		144
2		69		163
2		70		152
2		70		161
2		71		152
2		71		153
2		72		104
2		73		136
2		73		128
2		75		151
2		76		122
2		76		123
2		77		122
2		77		78
2		80		134
2		80		156
2		81		134
2		81		133
2		82		139
2		82		154
2		83		139
2		83		138
2		84		126
2		84		127
2		85		126
2		85		86
2		87		127
2		87		88
2		89		129
2		90		121
2		91		116
2		92		116
2		93		151
2		93		119
2		94		104
2		95		146
2		96		97
2		97		147
2		98		115
2		98		149
2		99		149
2		99		148
2		102		157
2		103		162
2		105		160
2		105		159
2		106		108
2		106		130
2		107		111
2		107		131
2		117		161
2		117		167
2		118		123
2		118		132
2		120		132
2		121		129
2		124		156
2		125		154
2		135		150
2		136		158
2		136		167
2		140		166
2		141		165
2		143		164
2		145		163
POINT_DATA 168
scalars NodeType integer
LOOKUP_TABLE default
7
7
7
7
7
7
7
7
7
7
7
7
7
7
7
7
7
7
7
7
7
7
7
7
7
7
0
0
0
0
0
0
0
0
0
0
0
0
0
0
0
0
0
0
9
0
0
0
0
0
0
0
0
0
0
0
0
0
0
0
0
0
0
0
0
0
0
0
0
0
0
0
0
0
9
0
0
0
0
0
0
0
0
0
0
0
0
0
0
9
0
0
0
0
0
0
0
0
0
0
0
0
0
0
0
0
0
0
0
0
0
0
0
0
0
0
0
0
0
9
9
0
0
0
0
0
0
0
0
0
0
0
0
0
0
0
0
0
0
0
0
0
0
0
0
0
0
0
0
0
0
0
0
0
0
0
0
0
0
0
0
0
0
0
0
0
0
0
CELL_DATA 156
SCALARS SlipSystem integer
LOOKUP_TABLE default
3
3
3
3
1
1
1
1
2
2
2
2
2
2
2
2
1
1
3
3
2
2
2
2
1
1
3
1
1
1
3
3
2
2
3
3
3
3
3
1
1
3
3
1
1
1
1
1
1
1
1
1
1
1
1
1
1
1
1
1
1
1
2
2
2
2
2
2
2
2
2
2
2
2
2
2
2
2
2
2
2
2
2
2
2
2
2
2
2
1
1
1
1
1
1
1
1
1
3
3
13
3
3
3
3
2
2
2
2
2
2
2
2
2
2
2
2
2
2
1
1
1
1
13
13
1
3
2
2
2
2
2
2
1
1
1
1
2
2
2
2
1
1
3
3
3
1
2
2
1
1
1
1
1
3
1
