# vtk DataFile Version 1.0
dislocation microstructure
ASCII
DATASET POLYDATA
POINTS 303 float
-1.407136E+02		-2.213016E+02		3.620151E+02
-4.069171E+02		1.959506E+01		3.873221E+02
-2.678171E+02		5.735064E+02		-3.056893E+02
-3.585793E+02		4.159045E+02		-5.732522E+01
2.435975E+02		5.088909E+02		-7.524885E+02
-3.645297E+01		4.790810E+02		-4.426281E+02
1.137360E+01		4.804267E+01		-5.941627E+01
2.977420E+02		-2.208350E+02		-7.690702E+01
-3.705953E+02		-3.364613E+02		7.070566E+02
-2.633774E+02		-5.962946E+01		3.230069E+02
-5.059046E+01		-1.177741E+02		1.683646E+02
-3.709113E+00		-3.770962E+02		3.808053E+02
-5.645235E+02		3.793574E+02		1.851661E+02
-3.703694E+02		9.044315E+01		2.799262E+02
-5.304416E+02		4.354699E+02		9.497178E+01
-5.136564E+02		1.737037E+02		3.399526E+02
-4.002894E+02		6.227393E+02		-2.224499E+02
-1.296146E+02		4.379697E+02		-3.083551E+02
3.132033E+01		-1.863970E+02		1.550767E+02
-2.594066E+02		2.052232E+02		5.418340E+01
5.559540E+02		2.224913E+01		-5.782031E+02
6.021915E+02		-3.324134E+02		-2.697781E+02
-9.943729E+01		-2.899623E+02		3.893996E+02
3.188077E+01		-5.505567E+02		5.186760E+02
-2.457631E+02		2.346175E+02		1.114560E+01
-1.949524E+01		-1.452330E+02		1.647282E+02
-1.591737E+02		-2.271239E+02		3.862976E+02
9.824223E+02		-3.863655E+02		-5.960568E+02
-4.245690E+02		-7.334580E+01		4.979148E+02
-2.847830E+02		6.230288E+02		-3.382457E+02
-9.991048E+01		2.490688E+02		-1.491583E+02
-4.051946E+02		-4.729736E+01		4.524920E+02
8.028687E+01		-4.679606E+02		3.876737E+02
-4.523266E+02		6.977680E+02		-2.454414E+02
-3.704777E+02		3.306746E+02		3.980306E+01
8.311624E+02		-4.652987E+02		-3.658637E+02
-3.302460E+02		2.879828E+02		4.226314E+01
-2.642675E+02		2.300931E+02		3.417446E+01
4.388281E+02		-1.260949E+02		-3.127331E+02
-7.984290E+02		1.354763E+02		6.629527E+02
-3.999217E+02		7.569777E+02		-3.570559E+02
7.838827E+02		-4.245956E+01		-7.414231E+02
3.155779E+01		-1.994351E+02		1.678773E+02
9.325187E+02		-3.167914E+02		-6.157273E+02
3.938358E+02		-5.161283E+01		-3.422230E+02
3.836434E+02		1.645234E+02		-5.481668E+02
8.395878E+02		-8.951853E+01		-7.500693E+02
-5.652191E+02		-7.960558E+01		6.448246E+02
-7.174420E+02		-7.472235E+01		7.921644E+02
-4.213411E+02		-3.951555E+02		8.164967E+02
-3.819899E+02		-3.710044E+02		7.529944E+02
-5.217585E+02		2.595866E+02		2.621719E+02
9.223354E+02		-2.554179E+02		-6.669174E+02
9.003422E+02		-1.755976E+02		-7.247445E+02
3.733607E+02		4.431359E+02		-8.164967E+02
1.008693E+02		-6.120815E+02		5.112122E+02
9.755545E+02		-4.100728E+02		-5.654817E+02
1.575033E+02		-5.560894E+02		3.985861E+02
4.749038E+02		-2.690068E+02		-2.058970E+02
-4.648446E+02		4.063743E+02		5.847031E+01
-4.638566E+02		6.322268E+02		-1.683701E+02
-7.528076E+01		2.719298E+02		-1.966490E+02
3.819206E+00		4.895225E+02		-4.933417E+02
8.538336E+02		-4.665207E+02		-3.873128E+02
-4.457122E+02		-8.582979E+01		5.315420E+02
4.229892E+02		2.217439E+02		-6.447330E+02
3.146384E+02		4.524222E+01		-3.598806E+02
9.886514E+02		-3.068208E+02		-6.818306E+02
2.591107E+02		5.290545E+02		-7.881652E+02
4.340339E+01		-2.826553E+02		2.392519E+02
4.342812E+02		3.138251E+02		-7.481062E+02
4.322793E+02		-7.626141E+02		3.303348E+02
-2.036594E+02		-1.960871E+02		3.997465E+02
4.732879E+02		-2.224760E+02		-2.508119E+02
-1.082703E+01		5.483472E+02		-5.375202E+02
-2.653781E+02		-1.219930E+02		3.873712E+02
-4.076279E+01		2.175667E+02		-1.768039E+02
-2.610320E+02		3.103233E+02		-4.929129E+01
9.274735E+02		-4.395639E+02		-4.879096E+02
9.868439E+02		-3.611939E+02		-6.256499E+02
-2.904303E+02		1.021911E+02		1.882392E+02
3.853506E+02		-3.098272E+02		-7.552341E+01
3.945250E+01		-3.054627E+02		2.660102E+02
1.343507E+01		-3.677798E+02		3.543448E+02
-6.331599E+01		6.249688E+02		-5.616528E+02
-6.475217E+00		-3.710619E+02		3.775372E+02
3.407304E+01		-3.256516E+02		2.915786E+02
1.755574E+02		-6.325765E+02		4.570191E+02
6.843364E+01		-5.925437E+02		5.241101E+02
-5.627982E+02		3.289804E+02		2.338179E+02
1.787388E+02		-5.892036E+02		4.104648E+02
-1.940765E+02		7.356675E+02		-5.415910E+02
9.689746E+02		-2.045554E+02		-7.644192E+02
8.895220E+02		-1.478493E+02		-7.416727E+02
-1.273506E+02		3.361442E+02		-2.087936E+02
4.336039E+02		2.579640E+02		-6.915680E+02
8.082050E+02		-6.183338E+01		-7.463716E+02
-5.219473E+01		2.100484E+02		-1.578537E+02
-6.708637E+02		-3.934904E+01		7.102128E+02
9.857547E+02		-2.762128E+02		-7.095420E+02
2.676046E+02		9.949132E+01		-3.670959E+02
8.050964E+02		-4.620480E+02		-3.430485E+02
-1.570030E+02		3.949696E+02		-2.379666E+02
-3.404639E+02		8.403124E+01		2.564326E+02
6.723925E+02		2.398316E+01		-6.963757E+02
2.754941E+01		-3.437685E+02		3.162191E+02
-4.790495E+01		-3.424977E+02		3.904027E+02
-4.053737E+02		3.618351E+02		4.353861E+01
-6.869488E+02		-5.307211E+01		7.400209E+02
-7.334244E+02		-8.307225E+01		8.164967E+02
1.413252E+02		-5.351087E+02		3.937835E+02
-7.792910E+02		9.928042E+01		6.800105E+02
1.103707E+02		-4.998144E+02		3.894437E+02
4.245217E+02		-9.952967E+01		-3.249921E+02
-7.879026E+02		4.413470E+02		3.465555E+02
4.553667E+01		-1.903835E+02		1.448468E+02
-4.163437E+02		7.487097E+02		-3.323660E+02
6.299095E+01		-1.744642E+02		1.114733E+02
-3.428833E+01		8.131762E+01		-4.702929E+01
-4.600929E+02		5.534716E+02		-9.337866E+01
-3.529131E+01		1.948184E+02		-1.595271E+02
3.427002E+02		1.374952E+01		-3.564497E+02
-1.460564E+02		3.155107E+02		-1.694543E+02
4.359814E+02		2.849375E+02		-7.209190E+02
9.798654E+02		-2.436250E+02		-7.362405E+02
9.515250E+02		-4.533386E+02		-4.981863E+02
3.748603E+02		-7.396136E+02		3.647532E+02
-3.961893E+02		-3.820129E+02		7.782021E+02
2.876482E+02		5.205110E+02		-8.081592E+02
3.768696E+00		6.875097E+01		-7.251966E+01
-3.197363E+02		6.736110E+02		-3.538747E+02
4.754051E+02		-2.461864E+02		-2.292186E+02
3.265756E+02		-2.710079E+02		-5.556772E+01
6.455328E+02		-3.950880E+02		-2.504448E+02
-1.296663E+02		2.690441E+02		-1.393778E+02
4.771933E+02		-7.782167E+02		3.010234E+02
9.655968E+02		-4.326865E+02		-5.329104E+02
-2.741184E+02		-8.972697E+01		3.638454E+02
3.078157E+02		1.232118E+02		-4.310274E+02
-7.532317E+01		2.297705E+02		-1.544474E+02
-6.989224E+02		-1.006622E+01		7.089886E+02
-6.516048E+02		-4.916810E+01		7.007729E+02
-8.163805E+01		-3.094464E+02		3.910845E+02
-8.154052E+02		1.743618E+02		6.410434E+02
3.318881E+02		1.313564E+02		-4.632445E+02
-1.672040E+00		-1.697494E+02		1.714215E+02
-9.265657E+01		6.561108E+02		-5.634542E+02
-2.261309E+02		7.539060E+02		-5.277751E+02
7.192764E+01		-1.141036E+02		4.217594E+01
-4.116960E+02		-3.908603E+02		8.025563E+02
-3.878348E+02		7.716920E+02		-3.838572E+02
9.282854E+02		-2.863193E+02		-6.419661E+02
5.720486E+02		3.636244E+01		-6.084110E+02
-2.693679E+02		1.607762E+02		1.085917E+02
-4.226235E+02		6.430234E+02		-2.203999E+02
-2.334166E+01		1.371915E+02		-1.138498E+02
9.502462E+02		-1.607388E+02		-7.895074E+02
4.189177E+02		-3.175426E+02		-1.013752E+02
7.100767E+02		-4.337557E+02		-2.763210E+02
4.283427E+02		2.398186E+02		-6.681613E+02
-8.152356E+02		3.885371E+02		4.266985E+02
-7.051400E+02		-6.666174E+01		7.718018E+02
9.350056E+02		-3.523805E+02		-5.826251E+02
-8.674744E+02		5.317672E+02		3.357072E+02
-3.074281E+02		2.572202E+02		5.020792E+01
-2.441084E+02		-1.550194E+02		3.991277E+02
-2.693476E+02		2.752977E+02		-5.950051E+00
9.889172E+02		-3.347554E+02		-6.541618E+02
-1.686188E+02		-2.218335E+02		3.904523E+02
5.910069E+02		-8.232068E+02		2.322000E+02
6.373826E+02		3.550954E+01		-6.728922E+02
-4.106781E+02		4.526311E+02		-4.195294E+01
-7.984061E+02		4.067344E+02		3.916717E+02
-8.368200E+02		5.002628E+02		3.365572E+02
-4.276312E+02		7.119733E+02		-2.843421E+02
-1.440778E+02		3.644998E+02		-2.204221E+02
-5.107615E+02		2.339624E+02		2.767990E+02
9.341007E+02		-3.889087E+02		-5.451920E+02
1.995257E+02		-6.317406E+02		4.322149E+02
8.762317E+02		-1.278645E+02		-7.483673E+02
2.838232E+02		1.171441E+02		-4.009673E+02
-4.080511E+02		7.270958E+02		-3.190447E+02
-4.465941E+02		5.121520E+02		-6.555786E+01
5.909994E+01		-1.975890E+02		1.384890E+02
-2.783713E+02		1.179267E+02		1.604447E+02
-3.601475E+02		7.117542E+02		-3.516067E+02
-8.408564E+02		2.773707E+02		5.634857E+02
-4.331409E+02		7.393860E+02		-3.062451E+02
-1.585758E+02		4.149304E+02		-2.563546E+02
-8.749385E+02		5.392752E+02		3.356633E+02
-8.005403E+02		4.601711E+02		3.403692E+02
4.512766E+02		-1.523340E+02		-2.989426E+02
9.578207E+02		-1.413240E+02		-8.164967E+02
4.076418E+01		-2.237187E+02		1.829545E+02
-3.069053E+02		9.096492E+01		2.159404E+02
-1.134347E+02		2.951658E+02		-1.817312E+02
-4.713982E+02		-9.218448E+01		5.635827E+02
3.073267E+02		5.091700E+02		-8.164967E+02
-6.059649E+02		-6.626799E+01		6.722329E+02
-4.656742E+02		5.915819E+02		-1.259077E+02
-4.939169E+02		4.229660E+02		7.095089E+01
-2.735887E+02		5.973770E+02		-3.237883E+02
-4.468668E+02		7.210726E+02		-2.742059E+02
1.303037E+02		-6.241027E+02		4.937990E+02
-2.713171E+02		1.371580E+02		1.341592E+02
-1.954073E+01		-1.452292E+02		1.647699E+02
4.767020E+01		-4.308946E+02		3.832244E+02
-7.572687E+02		6.374384E+01		6.935248E+02
4.089028E+02		3.934634E+02		-8.023662E+02
-6.064338E+01		2.448692E+02		-1.842258E+02
-4.475485E+02		6.765638E+02		-2.290152E+02
9.447966E+02		-4.694171E+02		-4.753795E+02
7.896318E+01		-1.801558E+02		1.011926E+02
5.040833E+02		-7.869241E+02		2.828408E+02
-2.896223E+02		2.264584E+02		6.316383E+01
-4.367522E+02		3.867773E+02		4.997492E+01
-8.287682E+01		2.691353E+02		-1.862584E+02
-3.081997E+02		7.852184E+02		-4.770187E+02
6.132139E+02		-3.628081E+02		-2.504059E+02
4.284214E+01		-8.161586E+01		3.877372E+01
-2.634565E+02		2.582327E+02		5.223789E+00
-3.832877E+02		4.262114E+02		-4.292375E+01
1.251257E+02		-5.161543E+02		3.910286E+02
6.752051E+01		-1.360687E+02		6.854822E+01
-2.511783E+02		2.871435E+02		-3.596515E+01
-4.311374E+02		4.818271E+02		-5.068970E+01
4.114716E+02		1.987689E+02		-6.102405E+02
4.257049E+02		3.524601E+02		-7.781650E+02
5.302543E+02		-7.952918E+02		2.650375E+02
9.281943E+02		-4.635400E+02		-4.646543E+02
-3.993173E+02		-1.241277E+01		4.117301E+02
1.615928E+01		-3.832765E+02		3.671172E+02
8.846307E+02		-4.655927E+02		-4.190380E+02
-2.848209E+01		1.660265E+02		-1.375444E+02
8.248449E+01		-1.527882E+02		7.030372E+01
-1.236280E+02		6.843568E+02		-5.607288E+02
4.002841E+02		-7.502459E+02		3.499618E+02
-8.287966E+02		2.141340E+02		6.146626E+02
-1.576110E+02		7.111329E+02		-5.535219E+02
3.968640E+02		1.783269E+02		-5.751910E+02
-5.034285E+02		2.090914E+02		2.943370E+02
-9.015603E+01		-3.022322E+02		3.923882E+02
-4.374133E+02		6.908659E+02		-2.534527E+02
-2.174095E+02		3.328192E+02		-1.154096E+02
7.534498E+02		-4.499914E+02		-3.034584E+02
4.484636E+02		-3.120385E+02		-1.364251E+02
6.067826E+02		4.042185E+01		-6.472045E+02
9.123450E+02		-2.151067E+02		-6.972383E+02
-1.321600E+02		-2.693072E+02		4.014672E+02
2.867629E+02		7.587710E+01		-3.626400E+02
-7.845257E+02		4.204599E+02		3.640658E+02
7.470702E+02		-1.631062E+01		-7.307596E+02
-5.498291E+02		3.035540E+02		2.462752E+02
-2.168660E+02		2.996672E+02		-8.280119E+01
-1.591117E+02		2.845455E+02		-1.254338E+02
2.383413E+02		-6.647033E+02		4.263620E+02
3.343083E+02		-7.210137E+02		3.867054E+02
-8.358435E+02		3.459669E+02		4.898766E+02
-5.352163E+02		-8.725282E+01		6.224692E+02
-3.741582E+02		7.845174E+02		-4.103592E+02
5.620612E+02		-8.065158E+02		2.444546E+02
-2.607335E+02		7.700671E+02		-5.093336E+02
9.066802E+02		-1.360688E+02		-7.706115E+02
3.691242E+02		1.521744E+02		-5.212986E+02
6.782698E+02		-4.173194E+02		-2.609504E+02
-5.044708E+02		-9.216457E+01		5.966354E+02
4.486764E+01		-2.560161E+02		2.111485E+02
7.186858E+02		1.074115E+00		-7.197599E+02
9.230603E+02		-4.600082E+02		-4.630521E+02
-4.221049E+01		2.381747E+02		-1.959642E+02
-1.051573E+02		3.057747E+02		-2.006175E+02
-7.315234E+02		2.803022E+01		7.034932E+02
-2.274469E+01		2.100161E+02		-1.872715E+02
-3.490323E+01		5.886771E+02		-5.537739E+02
-3.003733E+02		6.487320E+02		-3.483587E+02
-1.842034E+02		3.299838E+02		-1.457804E+02
-2.754060E+02		1.928978E+02		8.250821E+01
-8.413785E+02		3.122653E+02		5.291132E+02
2.958228E+02		-7.009739E+02		4.051511E+02
7.805269E+02		-4.572317E+02		-3.232953E+02
3.683895E+02		-1.743714E+01		-3.509523E+02
-4.587910E+02		6.556585E+02		-1.968674E+02
9.310396E+02		-4.147733E+02		-5.162664E+02
-2.419569E+02		3.262524E+02		-8.429556E+01
-8.364435E+02		2.461310E+02		5.903125E+02
4.645037E+02		-1.870258E+02		-2.774779E+02
5.620532E+01		-1.071896E+02		5.098428E+01
-3.451517E+02		7.892863E+02		-4.441347E+02
2.675075E+02		-6.842361E+02		4.167286E+02
-1.595010E+02		4.346727E+02		-2.751717E+02
-8.272807E+02		3.687121E+02		4.585686E+02
3.888891E+02		4.263103E+02		-8.151994E+02
-5.604925E+02		3.540836E+02		2.064089E+02
3.512138E+02		1.406641E+02		-4.918779E+02
7.939844E-01		5.182064E+02		-5.190003E+02
-3.959614E+02		7.390683E+02		-3.431069E+02
-9.924364E+00		4.720171E+02		-4.620927E+02
4.664796E+02		-2.943221E+02		-1.721575E+02
3.539086E+02		-2.932559E+02		-6.065274E+01
3.053008E+02		-2.447683E+02		-6.053247E+01
9.324997E+02		-1.415091E+02		-7.909907E+02
-1.875173E+02		2.949618E+02		-1.074445E+02
-2.248052E+01		1.148908E+02		-9.241033E+01
LINES 295 885
2		0		26
2		1		230
2		2		201
2		3		221
2		4		68
2		5		296
2		6		129
2		7		299
2		8		50
2		9		137
2		10		205
2		11		85
2		12		292
2		13		103
2		14		200
2		15		240
2		16		154
2		17		289
2		18		183
2		19		37
2		20		152
2		21		218
2		22		142
2		23		88
2		24		220
2		25		205
2		26		168
2		26		248
2		27		79
2		27		56
2		28		31
2		28		64
2		29		201
2		29		274
2		30		134
2		30		139
2		31		230
2		32		206
2		32		112
2		33		210
2		33		202
2		34		36
2		34		107
2		35		101
2		35		63
2		36		164
2		37		220
2		38		191
2		38		113
2		39		143
2		39		111
2		40		295
2		40		116
2		40		150
2		41		251
2		41		96
2		42		193
2		42		115
2		42		145
2		43		162
2		43		151
2		44		113
2		44		280
2		45		263
2		45		239
2		46		96
2		46		179
2		47		198
2		47		258
2		48		161
2		48		109
2		49		149
2		50		127
2		51		252
2		51		176
2		52		151
2		52		247
2		53		247
2		53		93
2		54		291
2		55		203
2		55		88
2		56		136
2		57		90
2		57		110
2		58		297
2		58		131
2		59		215
2		59		200
2		60		199
2		60		281
2		61		269
2		61		270
2		62		294
2		62		296
2		63		232
2		64		196
2		65		226
2		65		159
2		66		249
2		66		121
2		67		99
2		67		167
2		68		128
2		69		266
2		69		82
2		70		227
2		70		123
2		71		135
2		71		236
2		72		165
2		72		168
2		73		131
2		73		285
2		74		294
2		74		273
2		75		165
2		75		137
2		76		120
2		76		209
2		77		166
2		77		283
2		78		268
2		78		282
2		79		167
2		80		194
2		80		184
2		81		298
2		81		157
2		82		86
2		83		85
2		83		231
2		83		105
2		84		273
2		84		146
2		85		106
2		86		105
2		87		203
2		87		178
2		89		252
2		89		292
2		90		178
2		91		238
2		91		147
2		92		156
2		92		124
2		93		179
2		94		270
2		94		175
2		95		159
2		95		123
2		97		139
2		97		120
2		98		108
2		98		141
2		98		140
2		99		124
2		100		249
2		100		180
2		101		279
2		102		188
2		102		175
2		103		194
2		104		267
2		104		170
2		106		142
2		107		215
2		108		161
2		110		222
2		111		207
2		112		222
2		114		190
2		114		250
2		115		117
2		116		187
2		117		223
2		118		302
2		119		199
2		119		182
2		120		233
2		120		272
2		121		280
2		122		275
2		122		195
2		125		136
2		125		229
2		126		236
2		126		256
2		127		149
2		128		197
2		130		274
2		130		185
2		132		298
2		132		299
2		133		218
2		133		264
2		134		254
2		135		213
2		138		180
2		138		144
2		140		271
2		141		198
2		142		241
2		143		237
2		144		293
2		145		205
2		146		235
2		147		261
2		148		234
2		148		219
2		150		259
2		152		246
2		153		276
2		153		204
2		154		210
2		155		302
2		155		233
2		156		300
2		157		245
2		158		264
2		158		244
2		160		172
2		160		290
2		162		177
2		163		173
2		163		189
2		164		214
2		166		220
2		169		260
2		170		246
2		171		221
2		171		225
2		172		250
2		173		190
2		174		242
2		174		181
2		176		240
2		177		282
2		178		255
2		179		262
2		181		295
2		182		225
2		183		212
2		184		204
2		185		295
2		186		277
2		186		284
2		187		202
2		188		289
2		191		285
2		192		300
2		193		266
2		195		216
2		196		265
2		206		231
2		207		271
2		208		227
2		208		291
2		209		216
2		210		242
2		210		281
2		211		268
2		212		234
2		213		228
2		214		276
2		217		261
2		217		287
2		219		286
2		220		224
2		223		286
2		224		253
2		226		239
2		228		260
2		229		268
2		232		268
2		235		238
2		237		284
2		241		248
2		243		275
2		243		283
2		244		279
2		245		297
2		251		267
2		253		301
2		254		301
2		255		288
2		256		278
2		257		277
2		257		290
2		258		265
2		259		287
2		262		300
2		263		293
2		269		272
2		278		288
POINT_DATA 303
scalars NodeType integer
LOOKUP_TABLE default
7
7
7
7
7
7
7
7
7
7
7
7
7
7
7
7
7
7
7
7
7
7
7
7
7
7
0
0
0
0
0
0
0
0
0
0
0
0
0
0
0
0
0
0
0
0
0
0
0
8
0
0
0
0
8
0
0
0
0
0
0
0
0
0
0
0
0
0
0
0
0
0
0
0
0
0
0
0
0
0
0
0
0
0
0
0
0
0
0
0
0
0
0
0
0
0
0
0
0
0
0
0
0
0
0
0
0
0
0
8
0
0
0
0
0
0
0
0
9
0
0
0
0
0
0
0
0
0
0
9
0
0
0
0
0
0
0
0
0
0
0
0
0
0
0
0
0
0
0
0
0
0
0
0
0
0
0
0
0
0
0
0
0
0
0
0
0
0
0
8
0
0
0
0
0
0
0
0
0
0
0
0
0
0
0
0
0
0
0
8
0
0
8
0
0
0
0
8
0
0
0
0
0
0
0
0
0
0
0
0
0
8
0
0
0
0
0
0
0
9
0
0
0
0
0
0
0
0
0
0
0
0
0
0
0
0
0
0
0
0
0
0
0
0
0
0
0
0
0
0
0
0
0
0
0
0
0
0
0
0
0
0
0
0
0
0
0
0
0
0
0
0
0
0
0
0
0
0
0
0
0
0
0
0
0
0
0
0
0
0
0
0
0
0
0
0
0
0
0
0
0
0
0
CELL_DATA 295
SCALARS SlipSystem integer
LOOKUP_TABLE default
3
3
3
3
1
1
1
1
2
2
2
2
2
2
2
2
1
1
3
3
2
2
2
2
1
1
2
1
2
2
3
3
3
3
1
1
3
3
3
3
3
2
2
2
2
2
3
1
1
1
1
2
3
1
2
2
2
1
3
1
1
1
1
1
1
2
2
3
3
2
2
2
2
2
2
1
1
1
1
1
2
2
2
3
3
1
1
2
2
3
3
1
1
1
1
2
3
1
1
1
1
2
2
1
2
2
1
1
1
1
2
2
1
1
1
1
2
2
3
3
3
3
1
1
2
2
2
1
1
2
1
3
2
1
1
3
2
2
2
2
2
3
1
1
2
2
1
1
1
1
1
1
1
2
3
1
2
1
1
2
1
1
2
2
2
3
2
2
3
1
3
1
1
1
3
1
3
3
3
3
1
1
3
3
2
2
1
1
2
1
3
3
1
1
2
2
1
1
1
1
1
3
1
1
1
3
1
1
3
3
1
2
2
2
1
3
3
2
1
2
2
1
1
1
1
1
2
3
1
2
3
3
1
1
1
1
2
1
1
3
1
3
3
2
3
1
1
3
1
1
1
2
3
3
3
1
1
1
3
1
3
1
3
1
2
1
1
1
1
1
1
1
1
2
2
1
1
1
3
3
2
1
2
1
1
1
1
1
1
3
1
3
1
1
1
