# vtk DataFile Version 1.0
dislocation microstructure
ASCII
DATASET POLYDATA
POINTS 321 float
-1.407136E+02		-2.213016E+02		3.620151E+02
-4.069171E+02		1.959506E+01		3.873221E+02
-2.678171E+02		5.735064E+02		-3.056893E+02
-3.585793E+02		4.159045E+02		-5.732522E+01
2.435975E+02		5.088909E+02		-7.524885E+02
-3.645297E+01		4.790810E+02		-4.426281E+02
1.137360E+01		4.804267E+01		-5.941627E+01
2.977420E+02		-2.208350E+02		-7.690702E+01
-3.705953E+02		-3.364613E+02		7.070566E+02
-2.633774E+02		-5.962946E+01		3.230069E+02
-5.059046E+01		-1.177741E+02		1.683646E+02
-3.709113E+00		-3.770962E+02		3.808053E+02
-5.645235E+02		3.793574E+02		1.851661E+02
-3.703694E+02		9.044315E+01		2.799262E+02
-5.304416E+02		4.354699E+02		9.497178E+01
-5.136564E+02		1.737037E+02		3.399526E+02
-4.002894E+02		6.227393E+02		-2.224499E+02
-1.296146E+02		4.379697E+02		-3.083551E+02
3.132033E+01		-1.863970E+02		1.550767E+02
-2.594066E+02		2.052232E+02		5.418340E+01
5.559540E+02		2.224913E+01		-5.782031E+02
6.021915E+02		-3.324134E+02		-2.697781E+02
-9.943729E+01		-2.899623E+02		3.893996E+02
3.188077E+01		-5.505567E+02		5.186760E+02
-2.457631E+02		2.346175E+02		1.114560E+01
-1.949524E+01		-1.452330E+02		1.647282E+02
-1.498643E+02		-2.253288E+02		3.751931E+02
9.581615E+02		-3.704461E+02		-5.877154E+02
-4.329276E+02		-6.452627E+01		4.974539E+02
-2.871330E+02		6.228777E+02		-3.357448E+02
-1.087366E+02		2.323568E+02		-1.236202E+02
-4.112649E+02		-4.237569E+01		4.536405E+02
9.244496E+01		-4.570071E+02		3.645622E+02
-4.393081E+02		6.917705E+02		-2.524624E+02
-3.794368E+02		3.212210E+02		5.821584E+01
8.254841E+02		-4.518339E+02		-3.736503E+02
-3.408938E+02		2.809241E+02		5.996977E+01
-2.621049E+02		2.286398E+02		3.346507E+01
-6.011059E+02		3.562105E+02		2.448955E+02
-7.646204E+02		1.343512E+02		6.302691E+02
-3.870062E+02		7.322839E+02		-3.452777E+02
7.793520E+02		-5.364959E+01		-7.257025E+02
2.137436E+01		-1.870004E+02		1.656261E+02
8.954584E+02		-3.015819E+02		-5.938764E+02
3.658780E+02		-5.989955E+01		-3.059784E+02
-6.654388E+02		3.766567E+02		2.887821E+02
8.241720E+02		-8.997877E+01		-7.341933E+02
-5.694780E+02		-6.001770E+01		6.294957E+02
-6.906955E+02		-1.039113E+02		7.946068E+02
-4.366465E+02		-3.798501E+02		8.164967E+02
-3.908374E+02		-3.625959E+02		7.534333E+02
-5.328467E+02		2.579186E+02		2.749280E+02
8.848312E+02		-2.441153E+02		-6.407159E+02
8.626059E+02		-1.682211E+02		-6.943848E+02
3.488755E+02		4.486651E+02		-7.975406E+02
1.008481E+02		-6.068856E+02		5.060376E+02
9.516898E+02		-3.926887E+02		-5.590012E+02
1.811991E+02		-5.475382E+02		3.663390E+02
4.398851E+02		-2.486509E+02		-1.912342E+02
-4.682677E+02		3.954918E+02		7.277593E+01
-4.520393E+02		6.253120E+02		-1.732728E+02
-5.483095E+01		2.948707E+02		-2.400398E+02
-1.765164E+01		5.017693E+02		-4.841176E+02
-6.734276E+02		3.959366E+02		2.774910E+02
-4.543065E+02		-7.376209E+01		5.280686E+02
3.826220E+02		2.518812E+02		-6.345031E+02
2.928766E+02		2.500206E+01		-3.178787E+02
9.643626E+02		-2.956428E+02		-6.687198E+02
2.664575E+02		5.157904E+02		-7.822478E+02
2.564427E+01		-2.718225E+02		2.461783E+02
3.970206E+02		3.289226E+02		-7.259433E+02
4.249835E+02		-7.209275E+02		2.959440E+02
-1.988054E+02		-1.895900E+02		3.883954E+02
4.377194E+02		-2.090433E+02		-2.286760E+02
-3.399092E+01		5.469710E+02		-5.129801E+02
-2.572484E+02		-1.219015E+02		3.791499E+02
-5.714230E+01		2.144995E+02		-1.573572E+02
-2.506960E+02		3.019922E+02		-5.129614E+01
8.908112E+02		-4.160493E+02		-4.747619E+02
9.624249E+02		-3.467738E+02		-6.156510E+02
-2.971844E+02		1.087340E+02		1.884505E+02
3.799528E+02		-2.872459E+02		-9.270696E+01
2.003216E+01		-2.924755E+02		2.724433E+02
1.858487E+00		-3.350353E+02		3.331768E+02
-8.228974E+01		6.120339E+02		-5.297441E+02
-1.998077E+01		-3.407491E+02		3.607298E+02
1.374525E+01		-3.106439E+02		2.968987E+02
1.727034E+02		-6.254733E+02		4.527698E+02
7.122546E+01		-5.905184E+02		5.192929E+02
-5.980925E+02		3.339563E+02		2.641362E+02
2.085005E+02		-5.864644E+02		3.779639E+02
-1.989624E+02		7.073167E+02		-5.083543E+02
9.467589E+02		-2.002691E+02		-7.464898E+02
4.331704E+01		-8.159787E+01		3.828083E+01
-1.017554E+02		3.442627E+02		-2.425073E+02
3.935768E+02		2.842325E+02		-6.778094E+02
-6.046260E+02		3.541191E+02		2.505070E+02
-6.730113E+01		1.920341E+02		-1.247330E+02
-6.634303E+02		-4.881516E+01		7.122455E+02
9.617542E+02		-2.668450E+02		-6.949092E+02
2.328077E+02		7.800579E+01		-3.108135E+02
8.000150E+02		-4.482805E+02		-3.517345E+02
-1.320613E+02		3.905371E+02		-2.584759E+02
-3.420898E+02		8.668151E+01		2.554083E+02
6.729858E+02		1.333278E+01		-6.863186E+02
1.111768E+02		1.488515E+02		-2.600283E+02
-6.494989E+02		-3.579150E+01		6.852904E+02
-4.124324E+02		3.505245E+02		6.190791E+01
-6.727403E+02		-6.649472E+01		7.392351E+02
-7.036457E+02		-1.128509E+02		8.164967E+02
1.597899E+02		-5.232587E+02		3.634687E+02
-7.480148E+02		1.021703E+02		6.458445E+02
1.238264E+02		-4.869919E+02		3.631655E+02
3.946128E+02		-1.035593E+02		-2.910536E+02
-7.405846E+02		4.556402E+02		2.849444E+02
3.814898E+01		-1.815179E+02		1.433689E+02
-3.623415E+02		7.356106E+02		-3.732691E+02
5.728008E+01		-1.708238E+02		1.135438E+02
-2.619679E+01		9.092686E+01		-6.473007E+01
-4.513951E+02		5.507539E+02		-9.935881E+01
-2.144366E+01		1.155098E+02		-9.406618E+01
3.193741E+02		-2.685345E+00		-3.166888E+02
-1.463092E+02		2.999376E+02		-1.536284E+02
3.965015E+02		3.059202E+02		-7.024217E+02
9.564210E+02		-2.364589E+02		-7.199621E+02
9.306668E+02		-4.333736E+02		-4.972932E+02
3.716069E+02		-7.003266E+02		3.287197E+02
2.021578E+02		-6.245015E+02		4.223438E+02
8.259714E+01		1.574706E+02		-2.400678E+02
1.869686E+00		6.975729E+01		-7.162698E+01
-3.222977E+02		6.713116E+02		-3.490139E+02
-3.910387E+01		1.792470E+02		-1.401431E+02
3.322652E+02		-2.626380E+02		-6.962726E+01
6.485694E+02		-3.892348E+02		-2.593345E+02
-1.333784E+02		2.498536E+02		-1.164752E+02
4.684692E+02		-7.354828E+02		2.670136E+02
9.425795E+02		-4.139745E+02		-5.286050E+02
-2.689387E+02		-9.229042E+01		3.612291E+02
2.791480E+02		1.663671E+02		-4.455151E+02
8.497854E+02		-1.341377E+02		-7.156476E+02
-6.802873E+02		6.080152E+00		6.742072E+02
-6.388433E+02		-3.393874E+01		6.727821E+02
-6.580847E+01		-3.107310E+02		3.765395E+02
-7.793699E+02		1.690172E+02		6.103527E+02
3.010499E+02		1.729366E+02		-4.739865E+02
-6.388974E+02		3.699220E+02		2.689754E+02
-1.084656E+02		6.384197E+02		-5.299541E+02
-2.266890E+02		7.228467E+02		-4.961577E+02
6.960338E+01		-1.163743E+02		4.677092E+01
-4.240765E+02		-3.751784E+02		7.992548E+02
-3.150704E+01		1.465373E+02		-1.150302E+02
8.909210E+02		-2.730441E+02		-6.178769E+02
5.743684E+02		3.273324E+01		-6.071016E+02
-2.824570E+02		1.662122E+02		1.162448E+02
8.905133E+02		-4.630663E+02		-4.274471E+02
1.029441E+02		1.922306E+02		-2.951748E+02
9.320172E+02		-1.610054E+02		-7.710118E+02
4.029060E+02		-2.874925E+02		-1.154135E+02
7.088643E+02		-4.226972E+02		-2.861671E+02
5.837590E+02		-7.659305E+02		1.821715E+02
-7.775110E+02		3.530436E+02		4.244674E+02
-6.812026E+02		-8.934218E+01		7.705448E+02
8.985680E+02		-3.350892E+02		-5.634788E+02
-8.435127E+02		5.556011E+02		2.879116E+02
-3.200670E+02		2.537588E+02		6.630824E+01
-2.371634E+02		-1.506333E+02		3.877966E+02
-2.632332E+02		2.704750E+02		-7.241782E+00
9.644955E+02		-3.218992E+02		-6.425963E+02
-1.660242E+02		-2.150394E+02		3.810636E+02
6.370157E+02		-7.771980E+02		1.401823E+02
6.397070E+02		2.614277E+01		-6.658498E+02
-4.080049E+02		4.542530E+02		-4.624810E+01
-7.617586E+02		3.668039E+02		3.949547E+02
-8.121058E+02		5.244617E+02		2.876441E+02
-4.130630E+02		6.976084E+02		-2.845455E+02
-6.938740E+02		3.817350E+02		3.121390E+02
1.984245E+02		1.030242E+02		-3.014487E+02
8.985202E+02		-3.696417E+02		-5.288785E+02
2.230303E+02		-6.209844E+02		3.979541E+02
8.546323E+02		-1.006783E+02		-7.539540E+02
2.563295E+02		1.626812E+02		-4.190107E+02
-3.916889E+02		7.090033E+02		-3.173144E+02
-4.398927E+02		5.110604E+02		-7.116775E+01
5.738473E+01		-1.933288E+02		1.359441E+02
-2.875283E+02		1.250944E+02		1.624339E+02
-3.607326E+02		7.112839E+02		-3.505514E+02
-8.007521E+02		2.594458E+02		5.413063E+02
-4.210150E+02		7.234144E+02		-3.023994E+02
-4.400683E+01		8.156472E+01		-3.755789E+01
-8.510662E+02		5.631475E+02		2.879187E+02
-7.717343E+02		4.851436E+02		2.865907E+02
4.185946E+02		-1.500457E+02		-2.685489E+02
9.228252E+02		-1.063285E+02		-8.164967E+02
2.939078E+01		-2.196387E+02		1.902480E+02
2.061540E+02		1.633611E+02		-3.695151E+02
-3.109673E+02		9.658944E+01		2.143779E+02
-1.190917E+02		2.818046E+02		-1.627128E+02
-4.794239E+02		-7.734514E+01		5.567690E+02
3.093236E+02		4.906657E+02		-7.999893E+02
-6.095542E+02		-4.530167E+01		6.548559E+02
-4.552895E+02		5.865538E+02		-1.312643E+02
-4.943486E+02		4.147122E+02		7.963633E+01
-2.750139E+02		5.976315E+02		-3.226175E+02
-4.318474E+02		7.089224E+02		-2.770751E+02
1.283071E+02		-6.174336E+02		4.891265E+02
-2.830641E+02		1.443334E+02		1.387307E+02
-1.943498E+01		-1.451676E+02		1.646026E+02
5.976980E+01		-4.239486E+02		3.641788E+02
-7.289110E+02		7.050742E+01		6.584036E+02
3.802606E+02		3.952684E+02		-7.755290E+02
5.916513E+00		-3.506441E+02		3.447276E+02
-4.354851E+02		6.646007E+02		-2.291155E+02
-7.084568E+02		4.262437E+02		2.822131E+02
9.162668E+02		-4.979469E+02		-4.183200E+02
7.408280E+01		-1.756875E+02		1.016047E+02
4.939272E+02		-7.432466E+02		2.493194E+02
-3.028685E+02		2.261634E+02		7.670502E+01
-4.422504E+02		3.750044E+02		6.724600E+01
-9.323083E+01		2.593491E+02		-1.661183E+02
8.801914E+02		-4.600323E+02		-4.201591E+02
-2.972628E+02		7.497399E+02		-4.524771E+02
6.171987E+02		-3.613049E+02		-2.558938E+02
4.124621E+01		-8.164820E+01		4.040199E+01
-2.585785E+02		2.530167E+02		5.561746E+00
-3.827284E+02		4.278518E+02		-4.512341E+01
1.406079E+02		-5.035181E+02		3.629102E+02
2.321018E+02		1.616926E+02		-3.937944E+02
6.280695E+01		-1.330562E+02		7.024922E+01
-2.420572E+02		2.754044E+02		-3.334718E+01
-4.263783E+02		4.823805E+02		-5.600225E+01
3.721443E+02		2.322970E+02		-6.044413E+02
3.921189E+02		3.608807E+02		-7.529995E+02
5.191316E+02		-7.503926E+02		2.312610E+02
9.138834E+02		-4.514628E+02		-4.624206E+02
-4.023386E+02		-1.073674E+01		4.130753E+02
2.400940E+01		-3.810717E+02		3.570623E+02
8.684153E+02		-4.555144E+02		-4.129010E+02
-1.568331E+01		1.396861E+02		-1.240028E+02
-6.323169E+02		3.631453E+02		2.691716E+02
7.756741E+01		-1.508081E+02		7.324065E+01
-1.360286E+02		6.626177E+02		-5.265891E+02
-7.197477E+02		3.815420E+02		3.382057E+02
3.948806E+02		-7.097120E+02		3.148314E+02
-7.909646E+02		2.047484E+02		5.862162E+02
-1.662664E+02		6.857880E+02		-5.195217E+02
1.450491E+01		2.411274E+02		-2.556323E+02
3.590468E+02		2.140855E+02		-5.731323E+02
-5.092175E+02		2.113354E+02		2.978821E+02
-8.763677E+01		-2.984783E+02		3.861151E+02
-4.238421E+02		6.796211E+02		-2.557791E+02
-2.094549E+02		3.174959E+02		-1.080411E+02
1.565394E+02		1.283654E+02		-2.849048E+02
7.508018E+02		-4.372429E+02		-3.135589E+02
4.231275E+02		-2.820094E+02		-1.411181E+02
6.102834E+02		3.300470E+01		-6.432881E+02
8.746240E+02		-2.056570E+02		-6.689670E+02
-1.255424E+02		-2.653769E+02		3.909193E+02
2.649307E+02		5.121674E+01		-3.161475E+02
-7.430000E+02		3.765638E+02		3.664362E+02
9.053321E+02		-4.862872E+02		-4.190449E+02
7.438759E+02		-2.773001E+01		-7.161459E+02
-5.654084E+02		2.985392E+02		2.668692E+02
-2.069844E+02		2.820174E+02		-7.503298E+01
-1.585274E+02		2.652669E+02		-1.067395E+02
2.477373E+02		-6.369120E+02		3.891747E+02
3.332217E+02		-6.832946E+02		3.500729E+02
6.184390E+02		-7.727436E+02		1.543046E+02
-7.955739E+02		3.187755E+02		4.767984E+02
-5.409021E+02		-6.848230E+01		6.093844E+02
-3.446461E+02		7.446251E+02		-3.999790E+02
5.516357E+02		-7.587258E+02		2.070902E+02
-2.556561E+02		7.363558E+02		-4.806997E+02
8.862831E+02		-1.060997E+02		-7.801835E+02
1.546302E+02		1.737232E+02		-3.283534E+02
3.341160E+02		1.907145E+02		-5.248305E+02
6.792492E+02		-4.084606E+02		-2.707886E+02
5.445727E+01		1.623567E+02		-2.168140E+02
-5.691010E+00		7.338421E+01		-6.769320E+01
5.747113E+01		2.147532E+02		-2.722243E+02
-5.115889E+02		-7.484535E+01		5.864342E+02
2.940248E+01		-2.481216E+02		2.187191E+02
7.177562E+02		-1.085538E+01		-7.069008E+02
8.799071E+02		-4.450800E+02		-4.348271E+02
-2.181085E+01		2.673141E+02		-2.455033E+02
-8.223581E+01		3.217045E+02		-2.394686E+02
-7.069043E+02		3.895272E+01		6.679516E+02
1.705488E+01		1.601082E+02		-1.771631E+02
-1.861567E+01		9.840567E+01		-7.979001E+01
-5.669240E+01		5.815604E+02		-5.248680E+02
-3.032027E+02		6.478191E+02		-3.446165E+02
-1.798159E+02		3.136900E+02		-1.338741E+02
-2.891915E+02		1.958152E+02		9.337627E+01
-8.008810E+02		2.896341E+02		5.112470E+02
2.973615E+02		-6.653362E+02		3.679748E+02
7.763766E+02		-4.436814E+02		-3.326952E+02
3.429973E+02		-3.015896E+01		-3.128383E+02
-4.466417E+02		6.462287E+02		-1.995870E+02
8.958459E+02		-3.933055E+02		-5.025405E+02
-2.320833E+02		3.134226E+02		-8.133932E+01
-7.972365E+02		2.325090E+02		5.647275E+02
4.299076E+02		-1.795691E+02		-2.503385E+02
5.353949E+01		-1.066380E+02		5.309852E+01
-3.255921E+02		7.525940E+02		-4.270019E+02
2.721756E+02		-6.517542E+02		3.795786E+02
1.809834E+02		1.673630E+02		-3.483464E+02
-1.408980E+02		4.217466E+02		-2.808485E+02
1.292064E+02		1.819658E+02		-3.111722E+02
-7.876076E+02		3.367722E+02		4.508354E+02
3.664595E+02		4.219164E+02		-7.883759E+02
-5.767694E+02		3.665716E+02		2.101977E+02
3.179075E+02		1.811993E+02		-4.991068E+02
-2.414541E+01		5.240778E+02		-4.999324E+02
-3.728065E+02		7.225193E+02		-3.497128E+02
-2.396943E+01		4.873180E+02		-4.633485E+02
8.716742E-01		1.507479E+02		-1.516196E+02
4.325053E+02		-2.661646E+02		-1.663408E+02
3.558162E+02		-2.764873E+02		-7.932889E+01
3.132985E+02		-2.426451E+02		-7.065343E+01
9.178412E+02		-1.361157E+02		-7.817255E+02
-1.827774E+02		2.739339E+02		-9.115648E+01
-1.744118E+01		1.192289E+02		-1.017877E+02
LINES 313 939
2		0		26
2		1		234
2		2		202
2		3		224
2		4		68
2		5		313
2		6		129
2		7		317
2		8		50
2		9		137
2		10		206
2		11		85
2		12		309
2		13		103
2		14		201
2		15		247
2		16		211
2		17		305
2		18		183
2		19		37
2		20		152
2		21		221
2		22		142
2		23		88
2		24		223
2		25		206
2		26		168
2		26		256
2		27		79
2		27		56
2		28		31
2		28		64
2		29		202
2		29		289
2		30		97
2		30		134
2		31		234
2		32		207
2		32		112
2		33		211
2		33		203
2		34		36
2		34		107
2		35		236
2		35		101
2		36		164
2		37		223
2		38		89
2		38		309
2		38		96
2		39		143
2		39		111
2		40		187
2		40		312
2		41		46
2		41		260
2		42		206
2		42		193
2		42		115
2		43		162
2		43		151
2		44		113
2		44		295
2		45		238
2		45		175
2		46		139
2		46		179
2		47		199
2		47		268
2		48		161
2		48		109
2		49		149
2		50		149
2		51		247
2		51		261
2		52		151
2		52		255
2		53		255
2		53		139
2		54		198
2		54		308
2		55		204
2		55		88
2		56		136
2		57		90
2		57		110
2		58		73
2		58		315
2		59		217
2		59		201
2		60		200
2		60		296
2		61		283
2		61		284
2		62		311
2		62		313
2		63		212
2		63		145
2		64		197
2		65		95
2		65		230
2		66		257
2		66		121
2		67		99
2		67		167
2		68		198
2		69		280
2		69		82
2		70		231
2		70		123
2		71		135
2		71		242
2		72		165
2		72		168
2		73		300
2		74		311
2		74		288
2		75		165
2		75		137
2		76		218
2		76		131
2		77		166
2		77		298
2		78		282
2		78		297
2		79		167
2		80		195
2		80		184
2		81		316
2		81		157
2		82		86
2		83		85
2		83		210
2		83		86
2		84		288
2		84		146
2		85		142
2		87		204
2		87		127
2		89		261
2		89		238
2		90		178
2		91		244
2		91		147
2		92		156
2		92		124
2		93		148
2		94		284
2		94		102
2		95		123
2		96		145
2		97		150
2		98		108
2		98		106
2		99		124
2		100		257
2		100		176
2		101		294
2		102		305
2		103		195
2		104		281
2		104		170
2		105		251
2		105		128
2		106		141
2		107		217
2		108		161
2		110		225
2		111		208
2		112		225
2		113		191
2		114		212
2		114		190
2		115		117
2		116		269
2		116		312
2		117		227
2		118		188
2		118		120
2		119		200
2		119		182
2		120		150
2		121		295
2		122		290
2		122		196
2		125		136
2		125		233
2		126		242
2		126		265
2		127		178
2		128		276
2		130		289
2		130		185
2		131		150
2		132		316
2		132		317
2		133		221
2		133		275
2		134		263
2		135		215
2		138		180
2		138		144
2		140		285
2		140		141
2		141		199
2		142		248
2		143		243
2		144		310
2		146		240
2		147		271
2		148		239
2		152		254
2		153		291
2		153		205
2		154		233
2		154		219
2		155		278
2		155		306
2		156		318
2		157		253
2		158		275
2		158		252
2		159		266
2		159		270
2		160		172
2		160		307
2		162		177
2		163		173
2		163		189
2		164		216
2		166		223
2		169		266
2		170		254
2		171		224
2		171		229
2		172		258
2		173		190
2		174		249
2		174		181
2		175		241
2		176		251
2		177		297
2		178		264
2		179		272
2		180		226
2		181		312
2		182		229
2		183		214
2		184		205
2		185		312
2		186		292
2		186		299
2		187		203
2		191		300
2		192		272
2		193		280
2		194		226
2		194		304
2		196		218
2		197		279
2		207		235
2		208		285
2		209		231
2		209		308
2		210		235
2		211		249
2		211		296
2		213		259
2		214		239
2		215		232
2		216		291
2		219		259
2		219		236
2		220		271
2		220		302
2		222		301
2		223		228
2		227		301
2		228		262
2		230		246
2		232		270
2		236		282
2		237		314
2		237		320
2		240		244
2		241		258
2		243		299
2		245		283
2		245		278
2		246		274
2		248		256
2		250		290
2		250		298
2		252		294
2		253		315
2		260		281
2		262		319
2		263		319
2		264		303
2		265		293
2		267		292
2		267		307
2		268		279
2		269		302
2		272		318
2		273		304
2		273		306
2		274		310
2		276		286
2		277		287
2		286		314
2		287		320
2		293		303
POINT_DATA 321
scalars NodeType integer
LOOKUP_TABLE default
7
7
7
7
7
7
7
7
7
7
7
7
7
7
7
7
7
7
7
7
7
7
7
7
7
7
0
0
0
0
0
0
0
0
0
0
0
0
0
0
0
0
0
0
0
0
0
0
0
8
0
0
0
0
0
0
0
0
0
0
0
0
0
0
0
0
0
0
0
0
0
0
0
0
0
0
0
0
0
0
0
0
0
0
0
0
0
0
0
0
0
0
0
9
0
0
0
0
0
0
0
0
0
0
0
0
0
0
0
8
0
0
0
0
0
0
0
0
0
0
0
0
0
0
0
0
0
0
0
9
0
0
0
0
0
0
0
0
0
0
0
0
0
0
0
0
0
0
0
0
0
0
0
0
0
0
0
0
0
0
0
0
0
0
0
0
0
0
0
8
0
0
0
0
0
0
0
0
0
0
0
0
0
0
0
0
0
0
9
8
0
0
8
0
0
0
0
0
0
0
0
0
0
0
0
0
0
0
0
0
0
0
0
8
0
0
0
0
0
0
0
0
9
0
0
0
0
0
0
0
0
0
0
0
0
0
0
0
0
0
0
0
0
0
0
0
0
0
0
0
0
0
0
0
0
0
0
0
0
0
0
0
0
0
0
0
0
0
0
0
0
0
0
0
0
0
0
9
0
0
0
0
0
0
0
0
0
0
0
0
0
0
0
0
0
0
0
0
0
0
0
0
0
0
0
0
0
0
0
0
0
0
0
0
0
0
0
0
0
0
0
CELL_DATA 313
SCALARS SlipSystem integer
LOOKUP_TABLE default
3
3
3
3
1
1
1
1
2
2
2
2
2
2
2
2
1
1
3
3
2
2
2
2
1
1
2
1
2
2
3
3
3
3
1
1
3
3
3
3
3
2
2
2
2
2
3
3
2
1
1
1
3
3
2
2
3
2
1
1
1
1
1
1
1
1
3
3
3
2
2
2
2
2
2
1
1
1
1
1
1
2
2
2
3
3
1
1
2
2
3
3
1
1
1
1
1
1
3
1
1
1
1
2
2
1
2
2
1
1
1
1
2
2
1
1
1
2
2
3
3
3
3
1
1
2
2
2
1
1
2
1
3
2
1
1
3
2
2
2
1
3
1
1
2
2
3
1
1
1
1
1
2
2
2
1
1
2
1
2
2
2
1
1
2
2
2
3
1
3
1
1
1
1
1
1
1
13
13
3
3
13
1
3
3
2
2
1
1
2
1
3
3
3
1
1
2
2
1
1
1
1
1
1
3
1
1
1
1
1
3
2
2
2
2
2
1
1
2
1
2
2
1
1
1
1
1
1
1
2
3
1
2
3
3
1
1
1
1
1
1
1
1
3
1
1
3
3
2
3
1
1
3
1
1
2
1
1
3
3
3
1
1
1
3
1
3
1
3
1
2
1
3
1
1
1
1
1
1
1
1
1
1
1
1
1
1
1
1
1
1
3
3
2
1
2
1
1
1
1
1
1
3
1
2
1
1
1
1
1
1
1
1
