# vtk DataFile Version 1.0
dislocation microstructure
ASCII
DATASET POLYDATA
POINTS 188 float
-1.407136E+02		-2.213016E+02		3.620151E+02
-4.069171E+02		1.959506E+01		3.873221E+02
-2.678171E+02		5.735064E+02		-3.056893E+02
-3.585793E+02		4.159045E+02		-5.732522E+01
2.435975E+02		5.088909E+02		-7.524885E+02
-3.645297E+01		4.790810E+02		-4.426281E+02
1.137360E+01		4.804267E+01		-5.941627E+01
2.977420E+02		-2.208350E+02		-7.690702E+01
-3.705953E+02		-3.364613E+02		7.070566E+02
-2.633774E+02		-5.962946E+01		3.230069E+02
-5.059046E+01		-1.177741E+02		1.683646E+02
-3.709113E+00		-3.770962E+02		3.808053E+02
-5.645235E+02		3.793574E+02		1.851661E+02
-3.703694E+02		9.044315E+01		2.799262E+02
-5.304416E+02		4.354699E+02		9.497178E+01
-5.136564E+02		1.737037E+02		3.399526E+02
-4.002894E+02		6.227393E+02		-2.224499E+02
-1.296146E+02		4.379697E+02		-3.083551E+02
3.132033E+01		-1.863970E+02		1.550767E+02
-2.594066E+02		2.052232E+02		5.418340E+01
5.559540E+02		2.224913E+01		-5.782031E+02
6.021915E+02		-3.324134E+02		-2.697781E+02
-9.943729E+01		-2.899623E+02		3.893996E+02
3.188077E+01		-5.505567E+02		5.186760E+02
-2.457631E+02		2.346175E+02		1.114560E+01
-1.949524E+01		-1.452330E+02		1.647282E+02
-2.429189E+02		-5.372466E+01		2.966435E+02
5.682692E+01		-1.809734E+02		1.241465E+02
-1.651861E+02		-1.353389E+02		3.005250E+02
-1.437526E+02		-1.824069E+02		3.261595E+02
-3.762071E+02		-1.586538E+01		3.920725E+02
-3.709737E+02		2.239867E+01		3.485750E+02
-3.699517E+02		5.430142E+02		-1.730625E+02
-3.347331E+02		5.796514E+02		-2.449183E+02
-1.159767E+02		2.311829E+02		-1.152062E+02
-3.820415E+02		4.862049E+02		-1.041635E+02
-3.758259E+02		4.504104E+02		-7.458448E+01
2.113370E+02		3.017029E+02		-5.130399E+02
3.005675E+02		3.235495E+02		-6.241170E+02
3.312219E+02		4.139742E+02		-7.451962E+02
8.979899E+01		3.245101E+02		-4.143090E+02
-1.116152E+01		3.955302E+02		-3.843687E+02
2.260943E+02		1.159117E+01		-2.376855E+02
6.330951E+01		8.975941E+01		-1.530689E+02
5.974618E+01		1.832230E+01		-7.806848E+01
3.281043E+02		-1.027516E+02		-2.253527E+02
3.702885E+02		-2.044322E+02		-1.658563E+02
-4.123727E+02		-1.302005E+02		5.425732E+02
-4.279901E+02		-2.117062E+02		6.396963E+02
-4.221583E+02		-2.699702E+02		6.921284E+02
-4.021871E+02		-3.085916E+02		7.107786E+02
-3.908059E+02		-5.681691E+01		4.476228E+02
3.534584E+02		-1.479767E+02		-2.054816E+02
-4.814454E+01		4.530573E+02		-4.049128E+02
6.422928E+01		-2.783733E+02		2.141441E+02
3.693605E+01		-1.984132E+02		1.614772E+02
6.782470E+02		-2.173992E+02		-4.608478E+02
6.370920E+01		-3.520928E+02		2.883836E+02
3.736982E+01		-3.856464E+02		3.482766E+02
-5.335144E+02		3.559752E+02		1.775393E+02
-3.508586E+02		2.075124E+02		1.433462E+02
-3.354453E+02		1.362977E+02		1.991476E+02
-3.460154E+02		1.047868E+02		2.412286E+02
-4.383444E+02		3.682009E+02		7.014347E+01
-4.837611E+02		4.124923E+02		7.126877E+01
-4.758689E+02		2.258480E+02		2.500210E+02
-4.871669E+02		1.914597E+02		2.957072E+02
6.736467E+02		-1.711835E+02		-5.024631E+02
-3.024447E+02		6.816791E+02		-3.792344E+02
-4.229031E+02		7.233562E+02		-3.004531E+02
-1.415776E+02		5.587290E+02		-4.171514E+02
-8.683471E+01		4.743066E+02		-3.874719E+02
1.961543E+02		3.525145E+01		-2.314058E+02
-2.925713E+02		5.917395E+02		-2.991681E+02
1.848819E+00		6.976814E+01		-7.161696E+01
6.318881E+01		-1.692552E+02		1.060664E+02
-1.422744E+02		1.312133E+02		1.106113E+01
-1.966283E+02		1.811046E+02		1.552369E+01
-2.308510E+02		2.012296E+02		2.962142E+01
6.764519E+02		-1.943768E+02		-4.820751E+02
6.570839E+02		-9.544190E+01		-5.616420E+02
6.214377E+02		-2.664678E+01		-5.947909E+02
6.724794E+02		-2.853029E+02		-3.871765E+02
6.471575E+02		-3.228237E+02		-3.243337E+02
3.640798E+01		-4.118364E+02		3.754284E+02
-2.992883E+01		-3.440951E+02		3.740239E+02
-6.293699E+01		-3.124779E+02		3.754149E+02
6.381107E+01		-4.985168E+02		4.347057E+02
5.552804E+01		-5.332964E+02		4.777684E+02
-5.556399E+01		7.959398E+01		-2.402999E+01
-7.506866E+01		1.897054E+02		-1.146367E+02
-1.680965E+02		2.689961E+02		-1.008996E+02
-2.537773E+02		2.893231E+02		-3.554580E+01
6.218977E+01		-1.218164E+02		5.962659E+01
1.187591E+02		7.936594E+01		-1.981250E+02
-1.970145E+02		-9.248172E+01		2.894962E+02
-4.797297E+02		2.660492E+02		2.136805E+02
-4.895784E+02		2.946384E+02		1.949400E+02
-3.792514E+02		2.699013E+02		1.093501E+02
-4.018172E+02		3.123955E+02		8.942162E+01
-3.547256E+02		5.640690E+02		-2.093435E+02
-3.794057E+02		5.170513E+02		-1.376456E+02
1.609770E+02		3.041768E+02		-4.651538E+02
2.544442E+02		3.068549E+02		-5.612990E+02
1.629208E+02		5.735123E+01		-2.202720E+02
2.791331E+02		-3.985335E+01		-2.392797E+02
-4.217145E+02		-1.684513E+02		5.901658E+02
-4.020398E+02		-9.367849E+01		4.957183E+02
-4.254908E+02		-1.891081E+02		6.145989E+02
-4.279882E+02		-2.376844E+02		6.656726E+02
-3.837283E+02		-3.568160E+01		4.194099E+02
-3.966105E+02		-7.547803E+01		4.720886E+02
5.457801E+01		-2.407664E+02		1.861884E+02
6.837793E+01		-3.155080E+02		2.471301E+02
-3.397446E+02		1.733628E+02		1.663818E+02
-3.642057E+02		2.387484E+02		1.254573E+02
-2.102098E+02		2.881602E+02		-7.795041E+01
-2.084414E+02		6.163323E+02		-4.078908E+02
-9.897803E+01		8.045892E+01		1.851911E+01
4.314618E+01		-8.160479E+01		3.845861E+01
-7.872476E+01		5.811895E+01		2.060581E+01
-4.508631E+01		1.471577E+02		-1.020714E+02
-1.674886E+02		1.566129E+02		1.087563E+01
-1.197120E+02		1.056282E+02		1.408371E+01
6.698392E+02		-1.474856E+02		-5.223536E+02
6.787105E+02		-2.401443E+02		-4.385662E+02
7.252301E+00		-3.824444E+02		3.751921E+02
5.556845E+01		-4.566881E+02		4.011197E+02
-3.147079E+02		5.881472E+02		-2.734394E+02
-2.745297E+01		9.205729E+01		-6.460432E+01
-4.172388E+02		-1.489691E+02		5.662079E+02
-4.072835E+02		-1.118455E+02		5.191290E+02
9.008766E+01		8.783667E+01		-1.779243E+02
5.882065E+02		4.919307E+00		-5.931258E+02
6.442904E+02		-6.317440E+01		-5.811160E+02
-3.573094E+02		1.775304E+01		3.395564E+02
-2.727840E+02		6.026672E+02		-3.298832E+02
3.860713E+01		5.759224E+01		-9.619937E+01
6.259736E+02		-3.321201E+02		-2.938535E+02
6.627975E+02		-3.063981E+02		-3.563995E+02
3.275998E+02		3.492624E+02		-6.768622E+02
2.845559E+02		4.862150E+02		-7.707710E+02
4.032013E+01		3.516450E+02		-3.919651E+02
2.295127E+01		-1.807871E+02		1.578358E+02
-3.608233E+02		7.146351E+02		-3.538118E+02
-4.354819E+02		6.615809E+02		-2.260990E+02
-2.252546E+02		-6.571642E+01		2.909710E+02
-5.121392E+02		3.328325E+02		1.793067E+02
-4.149286E+02		3.344721E+02		8.045642E+01
-3.919620E+02		2.944952E+02		9.746675E+01
-2.839936E+02		-1.051403E+01		2.945077E+02
6.635774E+01		-1.497801E+02		8.342240E+01
-1.096638E+02		5.186693E+02		-4.090055E+02
-9.252610E+01		4.286270E+02		-3.361009E+02
6.771525E+02		-2.631744E+02		-4.139781E+02
3.406187E+02		-2.438429E+02		-9.677579E+01
6.645843E+02		-1.223355E+02		-5.422488E+02
1.277810E+02		3.110406E+02		-4.388216E+02
-2.755039E+02		6.613255E+02		-3.858217E+02
2.534239E+02		-1.326008E+01		-2.401638E+02
3.042792E+02		-6.964087E+01		-2.346383E+02
-1.729098E+02		5.889106E+02		-4.160008E+02
2.774829E+02		3.130399E+02		-5.905228E+02
-4.441771E+02		7.016189E+02		-2.574419E+02
-1.927025E+01		-1.450104E+02		1.642807E+02
3.137140E+02		4.510900E+02		-7.648040E+02
3.361439E+02		3.789082E+02		-7.150521E+02
-2.540286E+02		6.449368E+02		-3.909082E+02
1.870175E+02		3.017436E+02		-4.887611E+02
3.659779E+02		-2.326440E+02		-1.333339E+02
5.433485E+01		-3.705776E+02		3.162427E+02
-2.622097E+02		2.627151E+02		-5.054680E-01
-3.922710E+02		7.237782E+02		-3.315072E+02
-3.178814E+02		9.771714E+00		3.081097E+02
2.332764E+02		3.034937E+02		-5.367701E+02
-3.316818E+02		7.004398E+02		-3.687580E+02
4.386493E+01		8.041503E+01		-1.242800E+02
3.643893E+02		-1.766104E+02		-1.877788E+02
-3.684992E+02		1.393669E+00		3.671055E+02
-8.270974E+01		4.479741E+02		-3.652644E+02
1.307526E+01		3.724061E+02		-3.854813E+02
-3.216739E+01		4.216821E+02		-3.895147E+02
-4.599049E+02		3.916149E+02		6.829000E+01
-3.276594E+01		1.203663E+02		-8.760033E+01
-1.415639E+02		2.514050E+02		-1.098411E+02
3.148446E+02		3.352240E+02		-6.500686E+02
6.499718E+01		3.376313E+02		-4.026285E+02
-2.321966E+02		2.892752E+02		-5.707864E+01
LINES 176 528
2		0		29
2		1		31
2		2		136
2		3		36
2		4		141
2		5		53
2		6		74
2		7		155
2		8		50
2		9		26
2		10		164
2		11		126
2		12		59
2		13		62
2		14		64
2		15		66
2		16		145
2		17		153
2		18		27
2		19		78
2		20		133
2		21		138
2		22		86
2		23		88
2		24		171
2		25		164
2		26		146
2		26		150
2		27		143
2		27		75
2		28		95
2		28		29
2		30		110
2		30		178
2		31		135
2		32		100
2		32		101
2		33		100
2		33		128
2		34		90
2		34		184
2		35		101
2		35		36
2		37		168
2		37		174
2		38		162
2		38		185
2		39		165
2		39		166
2		40		157
2		40		186
2		41		181
2		41		180
2		42		72
2		42		159
2		43		176
2		43		132
2		44		137
2		45		52
2		45		160
2		46		169
2		46		177
2		47		130
2		47		131
2		48		108
2		48		109
2		49		109
2		49		50
2		51		110
2		51		111
2		52		177
2		53		181
2		54		112
2		54		113
2		55		112
2		55		143
2		56		125
2		56		79
2		57		113
2		57		170
2		58		170
2		58		126
2		59		147
2		60		114
2		60		115
2		61		114
2		61		62
2		63		148
2		63		182
2		64		182
2		65		96
2		65		66
2		67		124
2		67		79
2		68		175
2		68		158
2		69		163
2		69		172
2		70		152
2		70		161
2		71		152
2		71		179
2		72		104
2		73		136
2		73		128
2		75		151
2		76		122
2		76		123
2		77		122
2		77		78
2		80		134
2		80		156
2		81		134
2		81		133
2		82		139
2		82		154
2		83		139
2		83		138
2		84		126
2		84		127
2		85		86
2		85		126
2		87		127
2		87		88
2		89		129
2		90		121
2		91		184
2		91		116
2		92		171
2		92		187
2		93		151
2		93		119
2		94		104
2		94		132
2		95		146
2		96		97
2		97		147
2		98		115
2		98		149
2		99		149
2		99		148
2		102		157
2		102		168
2		103		162
2		103		174
2		105		160
2		105		159
2		106		108
2		106		130
2		107		111
2		107		131
2		116		187
2		117		161
2		117		167
2		118		123
2		118		120
2		121		183
2		124		156
2		125		154
2		129		183
2		135		178
2		135		173
2		137		176
2		140		185
2		140		166
2		141		165
2		142		180
2		142		186
2		143		164
2		144		175
2		144		172
2		145		163
2		150		173
2		153		179
2		155		169
2		158		167
POINT_DATA 188
scalars NodeType integer
LOOKUP_TABLE default
7
7
7
7
7
7
7
7
7
7
7
7
7
7
7
7
7
7
7
7
7
7
7
7
7
7
0
0
0
0
0
0
0
0
0
0
0
0
0
0
0
0
0
0
9
0
0
0
0
0
0
0
0
0
0
0
0
0
0
0
0
0
0
0
0
0
0
0
0
0
0
0
0
0
9
0
0
0
0
0
0
0
0
0
0
0
0
0
0
9
0
0
0
0
0
0
0
0
0
0
0
0
0
0
0
0
0
0
0
0
0
0
0
0
0
0
0
0
0
9
9
0
0
0
0
0
0
0
0
0
0
0
0
0
0
0
0
0
0
0
0
0
0
0
0
0
0
0
0
0
0
0
0
0
0
0
0
0
0
0
0
0
0
0
0
0
0
0
0
0
0
0
0
0
0
0
0
0
0
0
0
0
0
0
0
0
0
0
CELL_DATA 176
SCALARS SlipSystem integer
LOOKUP_TABLE default
3
3
3
3
1
1
1
1
2
2
2
2
2
2
2
2
1
1
3
3
2
2
2
2
1
1
3
1
1
13
3
3
2
2
3
3
3
3
3
1
1
3
3
1
1
1
1
1
1
1
1
1
1
1
1
1
1
1
1
1
1
1
2
2
2
2
2
2
2
2
1
1
2
2
2
2
2
2
2
2
2
2
2
2
2
2
2
2
2
2
2
2
2
2
1
1
1
1
1
1
1
1
1
3
3
13
3
3
3
3
2
2
2
2
2
2
2
2
2
2
2
2
2
2
1
1
1
1
1
1
13
13
1
1
3
2
2
2
2
2
2
1
1
1
1
1
1
2
2
2
2
1
1
1
3
3
1
2
2
1
2
1
1
1
1
1
1
1
3
1
1
1
1
1
1
1
