# vtk DataFile Version 1.0
dislocation microstructure
ASCII
DATASET POLYDATA
POINTS 301 float
-1.407136E+02		-2.213016E+02		3.620151E+02
-4.069171E+02		1.959506E+01		3.873221E+02
-2.678171E+02		5.735064E+02		-3.056893E+02
-3.585793E+02		4.159045E+02		-5.732522E+01
2.435975E+02		5.088909E+02		-7.524885E+02
-3.645297E+01		4.790810E+02		-4.426281E+02
1.137360E+01		4.804267E+01		-5.941627E+01
2.977420E+02		-2.208350E+02		-7.690702E+01
-3.705953E+02		-3.364613E+02		7.070566E+02
-2.633774E+02		-5.962946E+01		3.230069E+02
-5.059046E+01		-1.177741E+02		1.683646E+02
-3.709113E+00		-3.770962E+02		3.808053E+02
-5.645235E+02		3.793574E+02		1.851661E+02
-3.703694E+02		9.044315E+01		2.799262E+02
-5.304416E+02		4.354699E+02		9.497178E+01
-5.136564E+02		1.737037E+02		3.399526E+02
-4.002894E+02		6.227393E+02		-2.224499E+02
-1.296146E+02		4.379697E+02		-3.083551E+02
3.132033E+01		-1.863970E+02		1.550767E+02
-2.594066E+02		2.052232E+02		5.418340E+01
5.559540E+02		2.224913E+01		-5.782031E+02
6.021915E+02		-3.324134E+02		-2.697781E+02
-9.943729E+01		-2.899623E+02		3.893996E+02
3.188077E+01		-5.505567E+02		5.186760E+02
-2.457631E+02		2.346175E+02		1.114560E+01
-1.949524E+01		-1.452330E+02		1.647282E+02
-2.149374E+02		-2.164619E+02		4.313993E+02
1.112233E+03		-3.019809E+02		-8.102518E+02
-3.891497E+02		-1.056973E+02		4.948470E+02
-2.719541E+02		6.218617E+02		-3.499076E+02
-3.091185E+02		3.578739E+02		-4.875535E+01
-3.796838E+02		-6.206953E+01		4.417534E+02
-2.308400E-01		-4.843678E+02		4.845987E+02
-5.168640E+02		7.294067E+02		-2.125427E+02
-3.432935E+02		3.799281E+02		-3.663457E+01
8.574535E+02		-5.423716E+02		-3.150819E+02
6.138479E+02		-1.972507E+02		-4.165972E+02
-3.537402E+02		-3.626003E+02		7.163406E+02
5.903544E+02		-1.336346E+02		-4.567199E+02
-9.384345E+02		1.333007E+02		8.051338E+02
-4.942200E+02		7.711608E+02		-2.769409E+02
7.999610E+02		9.509231E+00		-8.094702E+02
2.082549E+02		5.244357E+02		-7.326907E+02
-8.751477E+01		7.956495E+02		-7.081347E+02
5.591681E+02		-4.926211E+01		-5.099060E+02
5.559853E+02		7.086048E-01		-5.566939E+02
5.279633E+02		-4.630335E+02		-6.492975E+01
-5.422899E+02		-1.578475E+02		7.001375E+02
-7.172616E+02		-9.923510E+01		8.164967E+02
-3.856995E+02		-4.307971E+02		8.164967E+02
-3.513768E+02		-3.890036E+02		7.403804E+02
-4.715047E+02		2.513260E+02		2.201786E+02
1.091313E+03		-2.862549E+02		-8.050586E+02
3.425124E+02		-3.818706E+02		3.935821E+01
4.167655E+02		-4.318554E+02		1.508993E+01
3.386359E+01		-5.956285E+02		5.617649E+02
-3.255499E+02		4.537793E+02		-1.282294E+02
6.222155E+02		-3.873135E+02		-2.349019E+02
2.743312E+02		-2.090315E+02		-6.529968E+01
-4.667189E+02		4.375747E+02		2.914423E+01
-5.193308E+02		6.622429E+02		-1.429121E+02
-3.149699E+02		9.306703E+02		-6.157004E+02
9.549750E+01		3.948416E+02		-4.903391E+02
6.027808E+02		1.921170E+02		-7.948979E+02
-4.065306E+02		-1.307369E+02		5.372675E+02
6.112384E+02		9.166433E+01		-7.029028E+02
6.240456E+02		-4.256677E+02		-1.983780E+02
8.566283E+00		7.013824E+02		-7.099486E+02
1.708753E+02		5.678779E+02		-7.387532E+02
1.007521E+02		-3.093150E+02		2.085629E+02
1.147042E+02		4.066554E+02		-5.213596E+02
4.219500E+02		-9.355458E+02		5.135957E+02
-1.721324E+02		-2.032238E+02		3.753563E+02
6.353779E+02		-2.786995E+02		-3.566784E+02
1.141380E+02		5.345263E+02		-6.486644E+02
-2.952805E+02		-1.167596E+02		4.120401E+02
-3.484478E+01		2.207889E+02		-1.859441E+02
-2.530692E+02		2.426429E+02		1.042630E+01
6.895599E+02		6.796993E+01		-7.575298E+02
7.554122E-01		-2.021613E+02		2.014058E+02
-2.652892E+02		7.263138E+01		1.926578E+02
3.762019E+02		-4.075547E+02		3.135279E+01
1.004038E+02		-3.439275E+02		2.435237E+02
2.217191E+01		-3.944603E+02		3.722884E+02
3.058706E+01		6.749812E+02		-7.055682E+02
-1.945237E+02		8.723944E+02		-6.778708E+02
8.993672E+01		-3.677915E+02		2.778548E+02
-2.275524E+02		3.664893E+02		-1.389369E+02
7.372279E+02		-4.983745E+02		-2.388534E+02
-5.037964E+02		3.247237E+02		1.790727E+02
2.013372E+01		-5.545257E+02		5.343920E+02
-1.697590E+02		8.569626E+02		-6.872037E+02
1.341031E+02		-2.740146E+02		1.399115E+02
1.540618E+01		4.174018E+02		-4.328079E+02
5.093270E+01		-3.940570E+02		3.431243E+02
6.057206E+02		1.656748E+02		-7.713954E+02
8.263172E+02		-9.820553E+00		-8.164967E+02
1.174898E+02		-2.854587E+02		1.679689E+02
-6.829708E+02		-1.093268E+02		7.922976E+02
6.953862E+01		3.940343E+02		-4.635729E+02
1.055117E+03		-2.454812E+02		-8.096353E+02
8.272424E+02		-5.315918E+02		-2.956506E+02
-3.131801E+02		4.882085E+02		-1.750284E+02
-3.357227E+02		7.228119E+01		2.634415E+02
6.602802E+02		7.833052E+01		-7.386107E+02
7.307740E+01		-3.845342E+02		3.114568E+02
-9.636127E+01		-3.463548E+02		4.427161E+02
-3.899819E+02		4.052513E+02		-1.526940E+01
-1.541954E+02		3.415030E+02		-1.873076E+02
6.307293E+02		-3.450578E+02		-2.856715E+02
1.624948E+01		-5.347593E+02		5.185098E+02
-9.127746E+02		9.627795E+01		8.164967E+02
9.916873E+00		-5.136981E+02		5.037812E+02
5.765858E+02		-9.906559E+01		-4.775202E+02
5.661821E+02		-7.136637E+01		-4.948158E+02
1.200422E+02		-1.895306E+02		6.948839E+01
-4.848110E+02		6.774158E+02		-1.926049E+02
-3.255190E+02		7.082293E+02		-3.827103E+02
-2.430204E+01		7.965701E+01		-5.535496E+01
-4.991393E+02		5.621983E+02		-6.305898E+01
-2.463073E+01		1.999872E+02		-1.753565E+02
-3.299665E+02		4.024653E+02		-7.249885E+01
-1.822964E+02		3.545486E+02		-1.722522E+02
1.529726E+02		6.364426E+02		-7.894152E+02
1.064702E+03		-2.515664E+02		-8.131353E+02
5.054790E+02		-4.617999E+02		-4.367907E+01
3.715698E+02		-9.005779E+02		5.290081E+02
-3.629682E+02		-4.145809E+02		7.775491E+02
1.556953E+02		-7.473678E+02		5.916725E+02
3.124104E+00		6.909685E+01		-7.222095E+01
-3.054562E+02		6.842922E+02		-3.788361E+02
6.388322E+02		-3.227743E+02		-3.160579E+02
2.638316E+02		-2.899816E+02		2.615001E+01
6.218413E+02		-4.375542E+02		-1.842871E+02
-1.250220E+02		3.232156E+02		-1.981936E+02
4.974948E+01		-2.567100E+02		2.069605E+02
-5.172053E+02		6.362792E+02		-1.190740E+02
-2.898319E+02		-7.927906E+01		3.691110E+02
6.429261E+02		-4.486069E+02		-1.943193E+02
-5.201529E+01		2.487344E+02		-1.967191E+02
-6.437443E+02		-1.265507E+02		7.702951E+02
-2.413700E+02		-1.980165E+02		4.393865E+02
-9.672112E+02		1.911717E+02		7.760394E+02
-9.794064E+02		2.206929E+02		7.587135E+02
-1.378028E+01		-1.724900E+02		1.862702E+02
-1.464429E+01		7.269274E+02		-7.122831E+02
-2.193852E+02		8.869380E+02		-6.675528E+02
7.320292E+01		-1.009425E+02		2.773960E+01
-3.793231E+02		-4.277711E+02		8.070942E+02
-5.384247E+02		8.757890E+02		-3.373643E+02
-1.945485E+02		-2.044861E+02		3.990346E+02
1.386041E+02		-2.545878E+02		1.159837E+02
-2.162555E+02		1.338607E+02		8.239480E+01
-4.268173E+02		6.249284E+02		-1.981111E+02
-7.386344E+00		1.303591E+02		-1.229727E+02
-1.953927E+02		-2.581997E+02		4.535924E+02
4.590688E+02		-4.502473E+02		-8.821481E+00
7.108428E+02		-4.859395E+02		-2.249032E+02
6.062961E+02		1.289284E+02		-7.352245E+02
-4.707038E+02		7.754837E+02		-3.047799E+02
-4.954078E+02		1.798278E+02		3.155800E+02
1.102422E+03		-3.117918E+02		-7.906300E+02
-4.613115E+02		6.501907E+02		-1.888791E+02
-2.731800E+02		2.306633E+02		4.251668E+01
-2.735171E+02		-1.639567E+02		4.374738E+02
9.439889E+01		-2.867180E+02		1.923191E+02
-9.539381E+02		1.626782E+02		7.912599E+02
-3.823991E+02		-8.528509E+01		4.676842E+02
4.524445E+02		-9.617692E+02		5.093246E+02
6.340687E+02		8.643600E+01		-7.205047E+02
-4.190890E+02		4.443817E+02		-2.529270E+01
5.863291E+02		-4.553098E+02		-1.310193E+02
-5.088904E+02		7.726948E+02		-2.638044E+02
-6.162982E+02		-1.371530E+02		7.534512E+02
-4.709632E+02		2.176322E+02		2.533310E+02
2.470698E+02		-2.500403E+02		2.970463E+00
5.683701E+01		-6.345377E+02		5.777007E+02
-2.502907E+01		4.567276E+02		-4.316985E+02
-3.802378E+01		-4.026854E+02		4.407092E+02
9.149393E+01		-6.804332E+02		5.889393E+02
-4.759594E+02		5.133184E+02		-3.735902E+01
-4.608631E+02		9.512533E+02		-4.903902E+02
-2.433564E+02		8.511584E+01		1.582406E+02
-3.485082E+02		7.303979E+02		-3.818897E+02
-1.016231E+03		3.461011E+02		6.701302E+02
9.178216E+01		-1.336705E+02		4.188833E+01
-2.731962E+02		5.238056E+02		-2.506094E+02
-1.032961E+03		3.812523E+02		6.517090E+02
5.416313E+01		6.436831E+02		-6.978462E+02
6.052347E+02		-1.724477E+02		-4.327870E+02
1.077880E+03		-2.613835E+02		-8.164967E+02
-2.332135E+02		5.252892E+02		-2.920758E+02
-1.080032E+02		-3.259278E+02		4.339310E+02
-2.929222E+02		6.688771E+01		2.260345E+02
1.213241E+02		-7.137132E+02		5.923892E+02
-4.325592E+02		-1.492715E+02		5.818307E+02
1.590666E+02		6.574300E+02		-8.164967E+02
-5.887242E+02		-1.463412E+02		7.350654E+02
-5.125748E+02		6.085367E+02		-9.596196E+01
-5.011200E+02		4.431690E+02		5.795103E+01
-2.659492E+02		5.947469E+02		-3.287977E+02
-5.182909E+02		7.670109E+02		-2.487200E+02
2.661888E+01		-2.363213E+02		2.097024E+02
-2.265170E+02		1.046705E+02		1.218465E+02
-1.968545E+01		-1.450683E+02		1.647538E+02
-1.923488E+01		-4.390933E+02		4.583282E+02
1.292561E+02		4.469088E+02		-5.761648E+02
5.978355E+02		2.186612E+02		-8.164967E+02
-3.816623E+02		7.538903E+02		-3.722281E+02
-5.124883E+02		7.210339E+02		-2.085455E+02
1.267292E+02		4.262979E+02		-5.530271E+02
4.024859E+01		4.026515E+02		-4.429001E+02
6.867869E+01		-1.829496E+02		1.142709E+02
-2.833927E+02		2.715969E+02		1.179580E+01
7.840487E+01		-2.780914E+02		1.996865E+02
-4.311850E+02		4.246830E+02		6.502034E+00
-8.108763E+01		2.847321E+02		-2.036445E+02
-1.458698E+02		4.708990E+02		-3.250291E+02
-3.568102E+02		9.433563E+02		-5.865461E+02
6.186208E+02		-3.544378E+02		-2.641830E+02
4.325203E+01		-8.160056E+01		3.834854E+01
-2.787868E+02		2.616217E+02		1.716506E+01
-3.845876E+02		4.218991E+02		-3.731158E+01
-3.922472E+02		9.505228E+02		-5.582757E+02
8.490433E+01		-1.426706E+02		5.776625E+01
-2.967024E+02		3.140529E+02		-1.735056E+01
-4.501196E+02		4.761278E+02		-2.600813E+01
5.809877E+02		6.070961E+01		-6.416973E+02
1.529897E+02		6.125593E+02		-7.655490E+02
-3.296206E+02		4.314661E+02		-1.018455E+02
9.661803E+01		5.740532E+02		-6.706712E+02
-3.867029E+02		-1.705175E+01		4.037547E+02
8.669130E+02		-5.473007E+02		-3.196123E+02
-1.165603E+01		1.618929E+02		-1.502369E+02
1.244648E+02		5.019302E+02		-6.263950E+02
-2.844912E+02		3.528634E+02		-6.837228E+01
-6.179354E+01		7.731297E+02		-7.113362E+02
6.294698E+02		-2.503032E+02		-3.791665E+02
3.980872E+02		-9.181635E+02		5.200763E+02
-9.904764E+02		2.513525E+02		7.391239E+02
-1.135239E+02		8.167307E+02		-7.032068E+02
-2.975462E+02		5.089787E+02		-2.114325E+02
5.641005E+02		2.687525E+01		-5.909758E+02
-4.809752E+02		1.929136E+02		2.880616E+02
-4.494289E+02		7.760160E+02		-3.265871E+02
-5.062255E+02		7.390584E+02		-2.328329E+02
-5.444479E+02		8.505776E+02		-3.061296E+02
-5.366074E+02		8.159822E+02		-2.793748E+02
7.629838E+02		-5.091690E+02		-2.538148E+02
5.499623E+02		-4.632681E+02		-8.669414E+01
5.938193E+02		8.129353E+01		-6.751128E+02
6.044559E+02		-4.463154E+02		-1.581405E+02
-1.541143E+02		-3.017261E+02		4.558404E+02
-9.977827E+02		2.754246E+02		7.223581E+02
-1.408482E+02		8.371752E+02		-6.963270E+02
2.856280E+02		-3.226918E+02		3.706381E+01
7.557388E+02		3.674834E+01		-7.924872E+02
-4.884729E+02		2.998516E+02		1.886213E+02
-9.215518E+02		1.064637E+02		8.150881E+02
1.370382E+02		-2.320233E+02		9.498514E+01
1.901101E+02		-7.773281E+02		5.872180E+02
3.245346E+02		-8.716297E+02		5.470950E+02
-2.493152E+02		3.654538E+02		-1.161387E+02
-3.782750E+01		7.505037E+02		-7.126762E+02
-5.049250E+02		-1.620142E+02		6.669392E+02
-4.746675E+02		9.395462E+02		-4.648787E+02
-7.360529E+01		-3.736127E+02		4.472180E+02
-2.729890E+02		9.138395E+02		-6.408505E+02
-2.287621E+02		2.140586E+02		1.470351E+01
-2.147361E+02		1.561734E+02		5.856264E+01
6.677960E+02		-4.622441E+02		-2.055520E+02
-4.795703E+02		2.755328E+02		2.040375E+02
1.017722E+03		-2.027026E+02		-8.150198E+02
-2.676212E+02		3.603688E+02		-9.274767E+01
-4.682361E+02		-1.600906E+02		6.283267E+02
2.994913E+02		-8.557758E+02		5.562845E+02
7.183568E+02		5.577156E+01		-7.741283E+02
-2.461848E+02		9.011095E+02		-6.549248E+02
9.582400E+01		-1.618221E+02		6.599809E+01
5.655687E+02		3.220765E+01		-5.977764E+02
7.554235E+01		6.114901E+02		-6.870324E+02
-2.846308E+02		6.514397E+02		-3.668089E+02
-2.175967E+02		1.813169E+02		3.627982E+01
2.741536E+02		-8.392223E+02		5.650687E+02
7.971825E+02		-5.216283E+02		-2.755541E+02
5.549470E+02		-3.039523E+01		-5.245517E+02
-5.187722E+02		6.963224E+02		-1.775502E+02
-1.004823E+03		2.994526E+02		7.053709E+02
6.217321E+02		-2.219154E+02		-3.998166E+02
6.533935E+01		-1.087210E+02		4.338162E+01
-4.267886E+02		9.536568E+02		-5.268682E+02
2.322796E+02		-8.100557E+02		5.777760E+02
-1.881226E+02		5.068562E+02		-3.187336E+02
-5.315578E+02		3.561109E+02		1.754469E+02
1.302643E+02		4.682279E+02		-5.984922E+02
-4.234372E+02		7.714058E+02		-3.479686E+02
-7.736507E+00		4.355223E+02		-4.277858E+02
3.111017E+02		-3.523552E+02		4.125347E+01
2.503232E+02		-2.124655E+02		-3.785768E+01
1.009050E+03		-1.925535E+02		-8.164967E+02
-9.847651E+00		1.038189E+02		-9.397122E+01
LINES 290 870
2		0		72
2		1		231
2		2		200
2		3		222
2		4		42
2		5		177
2		6		129
2		7		58
2		8		37
2		9		137
2		10		204
2		11		83
2		12		293
2		13		103
2		14		199
2		15		160
2		16		153
2		17		217
2		18		212
2		19		163
2		20		279
2		21		219
2		22		192
2		23		90
2		24		221
2		25		204
2		26		141
2		26		155
2		26		150
2		27		52
2		28		64
2		28		167
2		29		200
2		29		281
2		30		34
2		30		225
2		30		121
2		30		235
2		31		231
2		31		167
2		32		205
2		32		112
2		33		209
2		33		201
2		34		107
2		35		101
2		35		232
2		36		288
2		36		189
2		37		50
2		38		189
2		38		113
2		39		166
2		39		258
2		40		172
2		40		159
2		41		256
2		41		96
2		42		68
2		43		240
2		43		236
2		44		285
2		44		114
2		45		242
2		45		285
2		46		249
2		46		125
2		47		197
2		47		264
2		48		98
2		49		148
2		50		127
2		51		174
2		51		271
2		52		124
2		52		161
2		53		297
2		53		81
2		54		156
2		54		81
2		55		90
2		55		176
2		56		102
2		56		229
2		57		219
2		57		66
2		58		298
2		59		215
2		59		199
2		60		286
2		60		136
2		61		267
2		61		218
2		62		70
2		62		99
2		63		95
2		63		207
2		64		195
2		65		158
2		65		250
2		65		169
2		66		133
2		67		145
2		67		84
2		68		228
2		69		214
2		69		82
2		70		210
2		71		238
2		71		168
2		72		150
2		73		131
2		73		237
2		74		230
2		74		234
2		75		164
2		75		137
2		76		120
2		76		139
2		77		268
2		77		213
2		78		276
2		78		104
2		79		202
2		79		144
2		80		193
2		80		182
2		82		86
2		83		94
2		84		188
2		85		146
2		85		91
2		86		105
2		87		122
2		87		262
2		88		248
2		88		157
2		89		257
2		89		293
2		90		110
2		91		254
2		92		97
2		92		151
2		93		211
2		93		296
2		94		105
2		95		158
2		97		165
2		98		140
2		99		211
2		100		124
2		100		190
2		100		272
2		101		284
2		102		241
2		103		193
2		104		169
2		106		192
2		106		266
2		107		215
2		108		134
2		108		122
2		109		131
2		109		219
2		110		112
2		111		258
2		113		114
2		115		259
2		115		278
2		116		209
2		116		162
2		117		183
2		117		130
2		118		300
2		119		198
2		119		180
2		120		233
2		121		229
2		123		228
2		123		196
2		125		156
2		126		238
2		126		261
2		127		148
2		128		260
2		128		194
2		130		281
2		132		175
2		132		255
2		133		138
2		133		251
2		134		216
2		135		214
2		135		202
2		136		198
2		138		270
2		139		216
2		140		173
2		141		164
2		142		166
2		142		143
2		143		239
2		144		204
2		145		263
2		146		277
2		147		220
2		147		185
2		149		246
2		151		259
2		152		269
2		152		203
2		153		162
2		154		300
2		154		233
2		155		252
2		157		270
2		159		244
2		160		243
2		163		221
2		165		214
2		170		222
2		170		226
2		171		251
2		171		249
2		172		245
2		172		247
2		172		201
2		173		197
2		174		243
2		175		298
2		176		179
2		177		296
2		178		266
2		178		205
2		179		194
2		180		226
2		181		290
2		181		265
2		182		203
2		183		208
2		184		287
2		184		187
2		185		278
2		186		241
2		186		191
2		188		280
2		191		292
2		192		252
2		195		274
2		206		294
2		206		210
2		208		295
2		209		245
2		209		286
2		212		278
2		213		221
2		213		225
2		217		292
2		218		223
2		220		289
2		223		290
2		224		289
2		224		278
2		227		250
2		227		279
2		230		280
2		234		294
2		235		273
2		236		263
2		237		288
2		239		253
2		240		254
2		242		279
2		244		295
2		246		247
2		248		284
2		253		287
2		255		297
2		256		276
2		257		271
2		260		291
2		261		275
2		262		273
2		264		274
2		267		277
2		268		282
2		269		282
2		272		299
2		275		283
2		283		291
POINT_DATA 301
scalars NodeType integer
LOOKUP_TABLE default
7
7
7
7
7
7
7
7
7
7
7
7
7
7
7
7
7
7
7
7
7
7
7
7
7
7
0
8
0
0
0
0
0
0
0
0
0
0
0
0
0
0
0
0
0
0
0
0
8
8
0
0
0
0
0
0
0
0
0
0
0
0
0
0
0
0
0
0
0
0
0
0
0
0
0
0
0
0
0
0
0
0
0
0
0
0
0
0
0
0
0
0
0
0
0
0
8
0
0
0
0
0
0
0
0
0
0
0
0
0
0
8
0
0
0
0
0
0
9
0
0
0
0
0
0
0
0
0
0
9
0
0
0
0
0
0
0
0
0
0
0
0
0
0
0
0
0
0
0
8
0
0
0
0
0
0
0
0
0
0
0
8
0
0
0
0
0
0
8
0
0
0
0
0
0
0
0
0
0
0
0
0
0
0
0
0
0
8
0
0
8
0
0
0
0
0
8
0
0
0
0
0
0
0
0
0
0
8
0
0
0
0
0
0
0
0
0
0
0
0
9
0
0
0
0
0
0
0
0
0
0
0
8
0
0
0
0
0
0
0
0
0
0
0
0
0
0
0
0
0
0
0
0
0
0
0
0
0
0
0
0
0
0
0
0
8
0
0
0
0
0
0
0
0
0
0
0
0
0
0
0
0
0
0
0
0
0
0
0
0
0
0
0
0
0
0
0
0
0
8
0
CELL_DATA 290
SCALARS SlipSystem integer
LOOKUP_TABLE default
3
3
3
3
1
1
1
1
2
2
2
2
2
2
2
2
1
1
3
3
2
2
2
2
1
1
2
1
3
2
3
3
3
3
2
3
1
3
3
3
3
3
3
3
2
2
2
1
1
2
1
1
1
1
3
3
2
2
1
1
1
1
1
1
1
1
1
3
3
3
2
2
2
2
13
1
1
1
1
1
1
1
1
1
3
3
1
2
2
3
3
1
1
1
1
1
1
3
1
3
2
3
1
1
1
2
2
1
1
1
3
1
1
1
1
2
2
3
3
2
2
2
2
3
3
2
2
2
2
1
1
1
2
3
3
2
2
2
2
3
1
1
1
1
1
2
1
1
3
1
13
1
2
2
1
2
2
3
3
2
3
3
1
1
3
1
1
1
1
1
1
3
3
3
3
3
3
1
1
1
1
1
1
2
1
1
3
1
1
2
1
3
3
3
3
2
3
3
2
1
1
1
3
1
1
3
3
1
1
2
2
1
3
3
1
2
3
2
3
1
3
3
1
1
1
1
3
3
2
1
1
1
3
3
1
3
1
1
2
3
1
1
3
1
1
1
1
1
3
1
1
3
1
3
3
13
3
1
1
1
1
1
1
3
3
1
1
3
1
1
1
1
1
3
1
2
1
1
2
2
1
1
3
3
1
2
2
2
1
1
