# vtk DataFile Version 1.0
dislocation microstructure
ASCII
DATASET POLYDATA
POINTS 288 float
-1.407136E+02		-2.213016E+02		3.620151E+02
-4.069171E+02		1.959506E+01		3.873221E+02
-2.678171E+02		5.735064E+02		-3.056893E+02
-3.585793E+02		4.159045E+02		-5.732522E+01
2.435975E+02		5.088909E+02		-7.524885E+02
-3.645297E+01		4.790810E+02		-4.426281E+02
1.137360E+01		4.804267E+01		-5.941627E+01
2.977420E+02		-2.208350E+02		-7.690702E+01
-3.705953E+02		-3.364613E+02		7.070566E+02
-2.633774E+02		-5.962946E+01		3.230069E+02
-5.059046E+01		-1.177741E+02		1.683646E+02
-3.709113E+00		-3.770962E+02		3.808053E+02
-5.645235E+02		3.793574E+02		1.851661E+02
-3.703694E+02		9.044315E+01		2.799262E+02
-5.304416E+02		4.354699E+02		9.497178E+01
-5.136564E+02		1.737037E+02		3.399526E+02
-4.002894E+02		6.227393E+02		-2.224499E+02
-1.296146E+02		4.379697E+02		-3.083551E+02
3.132033E+01		-1.863970E+02		1.550767E+02
-2.594066E+02		2.052232E+02		5.418340E+01
5.559540E+02		2.224913E+01		-5.782031E+02
6.021915E+02		-3.324134E+02		-2.697781E+02
-9.943729E+01		-2.899623E+02		3.893996E+02
3.188077E+01		-5.505567E+02		5.186760E+02
-2.457631E+02		2.346175E+02		1.114560E+01
-1.949524E+01		-1.452330E+02		1.647282E+02
-1.653775E+02		-2.280880E+02		3.934655E+02
1.000217E+03		-3.980739E+02		-6.021429E+02
-4.186096E+02		-7.920217E+01		4.978118E+02
-2.829195E+02		6.230593E+02		-3.401398E+02
-3.430117E+02		3.153607E+02		2.765106E+01
-4.008864E+02		-5.052270E+01		4.514091E+02
7.059989E+01		-4.742348E+02		4.036349E+02
-4.621853E+02		7.024114E+02		-2.402262E+02
-3.644896E+02		3.373293E+02		2.716031E+01
8.354243E+02		-4.752239E+02		-3.602004E+02
-3.223857E+02		2.924729E+02		2.991277E+01
-2.651456E+02		2.307628E+02		3.438279E+01
4.621395E+02		-1.259521E+02		-3.361874E+02
-8.223520E+02		1.359569E+02		6.863951E+02
-4.221260E+02		7.654185E+02		-3.432925E+02
7.869138E+02		-3.442585E+01		-7.524880E+02
4.001156E+01		-2.120729E+02		1.720613E+02
9.580681E+02		-3.276643E+02		-6.304038E+02
4.146544E+02		-4.553801E+01		-3.691164E+02
4.100357E+02		1.376971E+02		-5.477328E+02
8.448377E+02		-8.325188E+01		-7.615858E+02
-5.618473E+02		-9.315191E+01		6.549992E+02
-7.307927E+02		-5.811880E+01		7.889115E+02
-4.130842E+02		-4.034125E+02		8.164967E+02
-3.757994E+02		-3.752622E+02		7.510616E+02
-5.128026E+02		2.598693E+02		2.529333E+02
9.483659E+02		-2.636743E+02		-6.846916E+02
9.267158E+02		-1.806194E+02		-7.460964E+02
9.102244E+02		-4.721747E+02		-4.380497E+02
1.007347E+02		-6.152313E+02		5.144966E+02
9.925198E+02		-4.216940E+02		-5.708258E+02
1.397507E+02		-5.606374E+02		4.208867E+02
5.009375E+02		-2.856202E+02		-2.153172E+02
-4.639517E+02		4.128837E+02		5.106796E+01
-4.725575E+02		6.371224E+02		-1.645650E+02
-2.900097E+02		8.035034E+02		-5.134937E+02
2.000476E+01		4.778047E+02		-4.978095E+02
8.587722E+02		-4.763230E+02		-3.824492E+02
-4.394376E+02		-9.398262E+01		5.334202E+02
4.515634E+02		2.001401E+02		-6.517035E+02
3.417093E+02		5.668035E+01		-3.983896E+02
1.006605E+03		-3.150202E+02		-6.915845E+02
2.474544E+02		5.419431E+02		-7.893975E+02
5.547015E+01		-2.894138E+02		2.339436E+02
4.607328E+02		3.043559E+02		-7.650887E+02
4.369081E+02		-7.920520E+02		3.551438E+02
-2.066844E+02		-2.003871E+02		4.070715E+02
4.993477E+02		-2.314396E+02		-2.679081E+02
7.315944E+00		5.481565E+02		-5.554725E+02
-2.709235E+02		-1.216063E+02		3.925298E+02
-4.832082E+01		2.182899E+02		-1.699691E+02
-2.685203E+02		3.159823E+02		-4.746201E+01
9.548350E+02		-4.565863E+02		-4.982486E+02
1.004930E+03		-3.718323E+02		-6.330973E+02
-2.857876E+02		9.736441E+01		1.884232E+02
3.873977E+02		-3.264299E+02		-6.096777E+01
5.231973E+01		-3.136368E+02		2.613171E+02
1.504332E+01		-3.861127E+02		3.710693E+02
-4.887525E+01		6.335286E+02		-5.846533E+02
2.181073E+01		-4.078542E+02		3.860435E+02
4.724871E+01		-3.348079E+02		2.875592E+02
1.768273E+02		-6.364168E+02		4.595895E+02
6.643739E+01		-5.936277E+02		5.271903E+02
-5.438184E+02		3.236342E+02		2.201843E+02
1.576731E+02		-5.902700E+02		4.325969E+02
-1.903200E+02		7.557649E+02		-5.654449E+02
9.845634E+02		-2.065904E+02		-7.779730E+02
9.131301E+02		-1.516598E+02		-7.614703E+02
3.155131E+01		-3.699675E+02		3.384162E+02
4.620978E+02		2.408563E+02		-7.029541E+02
8.125207E+02		-5.465516E+01		-7.578655E+02
8.667392E+02		-1.046650E+02		-7.620742E+02
-6.818543E+02		-4.905647E+01		7.309108E+02
1.003433E+03		-2.830316E+02		-7.204015E+02
-2.442709E+02		3.066567E+02		-6.238577E+01
8.087455E+02		-4.719150E+02		-3.368305E+02
-1.800903E+02		4.018016E+02		-2.217113E+02
-3.394115E+02		8.208691E+01		2.573246E+02
6.715698E+02		3.168278E+01		-7.032526E+02
4.033841E+01		-3.538992E+02		3.135608E+02
-7.290587E+01		-3.290349E+02		4.019407E+02
-4.010297E+02		3.693914E+02		3.163822E+01
-6.929372E+02		-4.582590E+01		7.387631E+02
-7.499663E+02		-6.653038E+01		8.164967E+02
1.266135E+02		-5.418984E+02		4.152850E+02
-8.013467E+02		9.685520E+01		7.044915E+02
9.912901E+01		-5.075210E+02		4.083920E+02
4.466621E+02		-9.706395E+01		-3.495982E+02
4.312800E+02		-7.128333E+01		-3.599966E+02
5.475205E+01		-1.976685E+02		1.429164E+02
-4.278586E+02		7.623328E+02		-3.344742E+02
6.702799E+01		-1.766957E+02		1.096677E+02
-3.372616E+01		8.125958E+01		-4.753342E+01
-4.663941E+02		5.552624E+02		-8.886827E+01
-3.896497E+01		2.022506E+02		-1.632856E+02
3.642997E+02		2.434341E+01		-3.886431E+02
-1.553018E+02		3.329320E+02		-1.776302E+02
4.639803E+02		2.710018E+02		-7.349821E+02
9.970067E+02		-2.486945E+02		-7.483122E+02
9.296867E+02		-4.690113E+02		-4.606754E+02
3.766160E+02		-7.669974E+02		3.903815E+02
-3.892854E+02		-3.896099E+02		7.788952E+02
2.059877E+02		-6.625161E+02		4.565284E+02
3.690305E+00		6.879327E+01		-7.248357E+01
-3.177983E+02		6.755086E+02		-3.577103E+02
5.022838E+02		-2.589822E+02		-2.433017E+02
3.204225E+02		-2.760830E+02		-4.433951E+01
6.428291E+02		-3.990906E+02		-2.437385E+02
-1.279837E+02		2.950141E+02		-1.670303E+02
4.826518E+02		-8.090096E+02		3.263578E+02
-2.773766E+02		-8.788901E+01		3.652656E+02
3.371207E+02		8.967405E+01		-4.267948E+02
-6.616713E+01		2.414415E+02		-1.752744E+02
-7.132084E+02		-2.190608E+01		7.351145E+02
-6.499198E+02		-6.292204E+01		7.128419E+02
-8.409693E+02		1.778615E+02		6.631078E+02
3.559855E+02		1.004818E+02		-4.564673E+02
-3.360365E+00		-1.719537E+02		1.753141E+02
-8.068802E+01		6.682018E+02		-5.875138E+02
-2.256366E+02		7.760792E+02		-5.504425E+02
7.294233E+01		-1.123952E+02		3.945289E+01
-4.045693E+02		-3.994781E+02		8.040475E+02
-4.145373E+02		7.959539E+02		-3.814166E+02
9.541074E+02		-2.958867E+02		-6.582207E+02
5.700998E+02		3.903823E+01		-6.091381E+02
-2.601606E+02		1.566738E+02		1.034869E+02
-4.245142E+02		6.413487E+02		-2.168345E+02
-2.011190E+01		1.358821E+02		-1.157702E+02
9.597161E+02		-1.645582E+02		-7.951579E+02
4.285598E+02		-3.389703E+02		-8.958942E+01
7.106939E+02		-4.416452E+02		-2.690488E+02
4.577249E+02		2.197942E+02		-6.775191E+02
-8.451798E+02		4.143288E+02		4.308510E+02
-7.168335E+02		-5.243100E+01		7.692645E+02
9.601973E+02		-3.646522E+02		-5.955451E+02
-8.878595E+02		5.147393E+02		3.731202E+02
-2.985068E+02		2.591879E+02		3.931882E+01
-2.488874E+02		-1.577761E+02		4.066636E+02
-2.735866E+02		2.783487E+02		-4.762091E+00
1.007007E+03		-3.442193E+02		-6.627881E+02
-1.701827E+02		-2.257150E+02		3.958977E+02
5.635259E+02		-8.506878E+02		2.871619E+02
6.353458E+02		4.229175E+01		-6.776376E+02
-4.125020E+02		4.513074E+02		-3.880539E+01
-8.360649E+02		4.344267E+02		4.016382E+02
-8.614945E+02		4.849010E+02		3.765935E+02
-4.389447E+02		7.222180E+02		-2.832732E+02
-1.715064E+02		3.677643E+02		-1.962580E+02
-5.029187E+02		2.322452E+02		2.706735E+02
9.594275E+02		-4.026412E+02		-5.567862E+02
1.779107E+02		-6.365342E+02		4.586234E+02
8.896470E+02		-1.277217E+02		-7.619253E+02
-3.885986E+01		-3.557155E+02		3.945754E+02
-4.200163E+02		7.403578E+02		-3.203415E+02
-4.514573E+02		5.127562E+02		-6.129892E+01
6.270908E+01		-2.002164E+02		1.375073E+02
-2.720436E+02		1.126105E+02		1.594331E+02
-3.586456E+02		7.141740E+02		-3.555283E+02
-8.694860E+02		2.899321E+02		5.795539E+02
-4.446164E+02		7.507696E+02		-3.061532E+02
-1.805722E+02		4.271145E+02		-2.465423E+02
-8.936143E+02		5.205994E+02		3.730150E+02
-8.415814E+02		4.558210E+02		3.857603E+02
4.756009E+02		-1.548940E+02		-3.207070E+02
9.827366E+02		-1.662399E+02		-8.164967E+02
4.783616E+01		-2.258233E+02		1.779872E+02
-9.906954E+01		-3.013158E+02		4.003853E+02
-3.041748E+02		8.690766E+01		2.172671E+02
-4.653895E+02		-1.023328E+02		5.677223E+02
2.722283E+02		5.442684E+02		-8.164967E+02
-6.033995E+02		-8.023180E+01		6.836313E+02
-4.732179E+02		5.950351E+02		-1.218172E+02
-4.946268E+02		4.275148E+02		6.711197E+01
-2.724829E+02		5.971263E+02		-3.246434E+02
-4.580832E+02		7.295694E+02		-2.714862E+02
1.314410E+02		-6.279485E+02		4.965075E+02
-2.633824E+02		1.319591E+02		1.314233E+02
-1.938276E+01		-1.450419E+02		1.644247E+02
3.863744E+01		-4.336328E+02		3.949954E+02
-7.772140E+02		5.848031E+01		7.187337E+02
4.279263E+02		3.885704E+02		-8.164967E+02
-4.569637E+02		6.844506E+02		-2.274869E+02
8.219489E+01		-1.833139E+02		1.011191E+02
5.095428E+02		-8.194692E+02		3.099264E+02
-2.811181E+02		2.263388E+02		5.477929E+01
-4.341376E+02		3.942148E+02		3.992278E+01
-9.428619E+01		2.680860E+02		-1.737998E+02
-3.171034E+02		8.111340E+02		-4.940306E+02
6.100312E+02		-3.635957E+02		-2.464355E+02
4.300217E+01		-8.161024E+01		3.860806E+01
-2.668875E+02		2.613086E+02		5.578920E+00
-3.836363E+02		4.250507E+02		-4.141436E+01
7.048437E+01		-1.379264E+02		6.744201E+01
-2.578522E+02		2.935184E+02		-3.566621E+01
-4.345417E+02		4.812489E+02		-4.670715E+01
4.395931E+02		1.750902E+02		-6.146833E+02
4.488069E+02		3.482137E+02		-7.970206E+02
5.326991E+02		-8.300741E+02		2.973750E+02
-3.971837E+02		-1.346084E+01		4.106446E+02
5.265988E+00		-3.826185E+02		3.773525E+02
8.898334E+02		-4.748946E+02		-4.149387E+02
-2.516888E+01		1.650941E+02		-1.399252E+02
8.559544E+01		-1.539406E+02		6.834513E+01
-1.142556E+02		6.994732E+02		-5.852176E+02
4.035938E+02		-7.786695E+02		3.750757E+02
-8.556821E+02		2.205398E+02		6.351423E+02
-1.510307E+02		7.289500E+02		-5.779194E+02
4.241767E+02		1.529517E+02		-5.771284E+02
-4.993641E+02		2.064666E+02		2.928975E+02
-4.478190E+02		6.990275E+02		-2.512086E+02
-2.241016E+02		3.447001E+02		-1.205986E+02
7.551460E+02		-4.589870E+02		-2.961590E+02
4.663172E+02		-3.351928E+02		-1.311243E+02
6.039503E+02		4.577242E+01		-6.497227E+02
9.386821E+02		-2.220972E+02		-7.165849E+02
-1.367494E+02		-2.721472E+02		4.088966E+02
7.490385E+02		-8.105018E+00		-7.409335E+02
-5.363077E+02		3.040678E+02		2.322399E+02
-2.242665E+02		3.132446E+02		-8.897809E+01
-1.619480E+02		3.036278E+02		-1.416798E+02
2.302147E+02		-6.823824E+02		4.521677E+02
3.343777E+02		-7.469507E+02		4.125729E+02
-8.650445E+02		3.652103E+02		4.998342E+02
-5.307856E+02		-1.002285E+02		6.310141E+02
-3.934543E+02		8.106975E+02		-4.172432E+02
-2.632621E+02		7.936810E+02		-5.304188E+02
3.944415E+02		1.242658E+02		-5.187073E+02
6.772247E+02		-4.236250E+02		-2.535997E+02
-4.990273E+02		-1.040838E+02		6.031111E+02
5.531413E+01		-2.605926E+02		2.052784E+02
7.189543E+02		9.635373E+00		-7.285897E+02
9.491218E+02		-4.650919E+02		-4.840298E+02
-7.489136E+02		1.966096E+01		7.292526E+02
-1.819610E+01		5.929762E+02		-5.747801E+02
-2.980890E+02		6.493591E+02		-3.512701E+02
-1.889928E+02		3.439576E+02		-1.549648E+02
-2.659863E+02		1.906399E+02		7.534635E+01
-8.704310E+02		3.282043E+02		5.422267E+02
2.937196E+02		-7.248693E+02		4.311497E+02
7.833840E+02		-4.668215E+02		-3.165625E+02
3.889302E+02		-9.004863E+00		-3.799253E+02
-4.679394E+02		6.624829E+02		-1.945435E+02
9.578619E+02		-4.302801E+02		-5.275818E+02
-2.498710E+02		3.357463E+02		-8.587533E+01
-8.643500E+02		2.555728E+02		6.087772E+02
4.897473E+02		-1.926639E+02		-2.970834E+02
5.777447E+01		-1.075348E+02		4.976033E+01
-3.588357E+02		8.162727E+02		-4.574370E+02
2.627485E+02		-7.055932E+02		4.428447E+02
-1.685561E+02		4.470779E+02		-2.785218E+02
-8.564062E+02		3.913081E+02		4.650981E+02
-5.503495E+02		3.508131E+02		1.995364E+02
3.756374E+02		1.115082E+02		-4.871457E+02
1.984337E+01		5.120888E+02		-5.319322E+02
-4.048922E+02		7.436518E+02		-3.387596E+02
-3.889866E+00		4.635567E+02		-4.596669E+02
4.903519E+02		-3.150864E+02		-1.752655E+02
3.506388E+02		-3.041036E+02		-4.653517E+01
2.990864E+02		-2.443388E+02		-5.474759E+01
9.498044E+02		-1.633321E+02		-7.864723E+02
-1.926478E+02		3.112864E+02		-1.186386E+02
-2.013822E+01		1.129561E+02		-9.281786E+01
LINES 280 840
2		0		26
2		1		224
2		2		199
2		3		217
2		4		68
2		5		281
2		6		129
2		7		284
2		8		50
2		9		136
2		10		203
2		11		225
2		12		277
2		13		103
2		14		198
2		15		234
2		16		152
2		17		275
2		18		115
2		19		37
2		20		150
2		21		214
2		22		192
2		23		88
2		24		216
2		25		203
2		26		166
2		26		241
2		27		79
2		27		56
2		28		31
2		28		64
2		29		199
2		29		260
2		30		36
2		30		34
2		31		224
2		32		204
2		32		112
2		33		207
2		33		200
2		34		107
2		35		101
2		35		63
2		36		162
2		37		216
2		38		189
2		38		113
2		39		141
2		39		111
2		40		280
2		40		116
2		40		148
2		41		242
2		41		96
2		42		191
2		42		115
2		42		143
2		43		160
2		43		149
2		44		266
2		44		114
2		45		252
2		45		233
2		46		96
2		46		97
2		47		196
2		47		249
2		48		159
2		48		109
2		49		147
2		50		127
2		51		243
2		51		174
2		52		149
2		52		240
2		53		240
2		53		93
2		54		226
2		54		125
2		55		201
2		55		88
2		57		90
2		57		110
2		58		282
2		58		131
2		59		211
2		59		198
2		60		197
2		60		267
2		61		251
2		61		213
2		62		279
2		62		281
2		63		226
2		64		194
2		65		221
2		65		157
2		66		121
2		66		137
2		67		99
2		67		165
2		68		195
2		69		255
2		69		82
2		70		222
2		70		123
2		71		135
2		71		230
2		72		163
2		72		166
2		73		131
2		73		271
2		74		279
2		74		259
2		75		163
2		75		136
2		76		120
2		76		138
2		77		164
2		77		269
2		78		257
2		78		268
2		79		165
2		80		193
2		80		182
2		81		283
2		81		155
2		82		86
2		83		225
2		83		94
2		84		259
2		84		144
2		85		225
2		85		204
2		86		105
2		87		201
2		87		176
2		89		243
2		89		277
2		90		176
2		91		232
2		91		145
2		92		154
2		92		124
2		93		177
2		93		285
2		94		105
2		95		157
2		95		123
2		97		177
2		98		108
2		98		140
2		98		139
2		99		124
2		100		244
2		100		219
2		101		265
2		102		186
2		102		173
2		103		193
2		104		256
2		104		168
2		106		192
2		106		178
2		107		211
2		108		159
2		110		112
2		111		205
2		113		114
2		115		117
2		115		181
2		116		185
2		117		218
2		118		287
2		119		197
2		119		180
2		120		227
2		121		266
2		122		261
2		122		134
2		122		173
2		125		257
2		126		230
2		126		247
2		127		147
2		128		246
2		128		176
2		130		260
2		130		183
2		132		283
2		132		284
2		133		214
2		133		253
2		134		245
2		134		212
2		135		209
2		137		142
2		138		212
2		139		258
2		140		196
2		141		231
2		142		278
2		143		203
2		144		229
2		145		251
2		146		228
2		146		215
2		148		250
2		150		239
2		151		262
2		151		202
2		152		207
2		153		287
2		153		227
2		154		285
2		155		238
2		156		253
2		156		237
2		158		170
2		158		276
2		160		175
2		161		171
2		161		187
2		162		210
2		164		216
2		167		223
2		168		239
2		169		217
2		169		220
2		170		188
2		171		188
2		172		235
2		172		179
2		174		234
2		175		268
2		178		225
2		179		280
2		180		220
2		181		208
2		182		202
2		183		280
2		184		263
2		184		270
2		185		200
2		186		275
2		189		271
2		190		285
2		191		255
2		192		241
2		194		254
2		205		258
2		206		222
2		207		235
2		207		267
2		208		228
2		209		223
2		210		262
2		213		273
2		215		272
2		216		219
2		218		272
2		221		233
2		229		232
2		231		270
2		236		261
2		236		269
2		237		265
2		238		282
2		242		256
2		244		286
2		245		286
2		246		274
2		247		264
2		248		263
2		248		276
2		249		254
2		250		273
2		252		278
2		264		274
POINT_DATA 288
scalars NodeType integer
LOOKUP_TABLE default
7
7
7
7
7
7
7
7
7
7
7
7
7
7
7
7
7
7
7
7
7
7
7
7
7
7
0
0
0
0
0
0
0
0
0
0
0
0
0
0
0
0
0
0
0
0
0
0
0
8
0
0
0
0
0
0
8
0
0
0
0
0
0
0
0
0
0
0
0
0
0
0
0
0
0
0
0
0
0
0
0
0
0
0
0
0
0
0
0
0
0
0
0
0
0
0
0
0
0
0
0
0
0
0
0
0
0
0
0
8
0
0
0
0
0
0
0
0
9
0
0
0
0
0
0
0
0
0
0
9
0
0
0
0
0
0
0
0
0
0
0
0
0
0
0
0
0
0
0
0
0
0
0
0
0
0
0
0
0
0
0
0
0
0
0
0
0
8
0
0
0
0
0
0
0
0
0
0
0
0
0
0
0
0
0
0
0
8
0
0
8
0
0
0
0
8
0
0
0
0
0
0
0
0
0
0
8
0
0
0
0
0
0
0
0
9
0
0
0
0
0
0
0
0
0
0
0
0
0
0
0
0
0
0
0
0
0
0
0
0
0
0
0
0
0
0
0
0
0
0
0
0
0
0
0
0
0
8
0
0
0
0
0
0
0
0
0
0
0
0
0
0
0
0
0
0
0
0
0
0
0
0
0
0
0
0
0
0
CELL_DATA 280
SCALARS SlipSystem integer
LOOKUP_TABLE default
3
3
3
3
1
1
1
1
2
2
2
2
2
2
2
2
1
1
3
3
2
2
2
2
1
1
2
1
2
2
3
3
3
3
2
2
3
3
3
3
3
2
2
2
2
3
1
1
1
1
2
3
1
2
2
2
1
3
1
1
1
1
1
1
2
2
3
3
2
2
2
2
2
2
1
1
1
1
2
2
2
2
3
3
1
1
2
2
3
3
1
1
1
1
2
3
1
1
1
1
2
2
1
2
2
1
1
1
1
2
2
1
1
1
1
2
2
3
3
3
3
1
1
2
2
2
1
1
2
2
2
1
1
3
3
2
2
2
2
2
3
1
1
2
2
2
3
2
1
1
2
2
3
1
2
1
1
2
1
1
2
2
2
3
3
2
2
3
1
1
1
3
3
1
3
3
3
3
1
3
2
1
2
1
1
2
1
1
3
3
1
1
2
2
1
3
1
1
3
1
3
1
1
3
1
1
3
3
1
2
2
2
1
3
3
2
1
2
2
1
1
1
1
1
2
3
1
2
3
3
1
1
1
1
2
1
3
1
3
3
2
3
1
1
3
1
1
1
2
1
3
1
1
1
3
3
1
2
1
1
1
1
1
1
1
3
3
2
1
2
1
1
1
1
1
1
3
1
1
1
