# vtk DataFile Version 1.0
dislocation microstructure
ASCII
DATASET POLYDATA
POINTS 237 float
-1.407136E+02		-2.213016E+02		3.620151E+02
-4.069171E+02		1.959506E+01		3.873221E+02
-2.678171E+02		5.735064E+02		-3.056893E+02
-3.585793E+02		4.159045E+02		-5.732522E+01
2.435975E+02		5.088909E+02		-7.524885E+02
-3.645297E+01		4.790810E+02		-4.426281E+02
1.137360E+01		4.804267E+01		-5.941627E+01
2.977420E+02		-2.208350E+02		-7.690702E+01
-3.705953E+02		-3.364613E+02		7.070566E+02
-2.633774E+02		-5.962946E+01		3.230069E+02
-5.059046E+01		-1.177741E+02		1.683646E+02
-3.709113E+00		-3.770962E+02		3.808053E+02
-5.645235E+02		3.793574E+02		1.851661E+02
-3.703694E+02		9.044315E+01		2.799262E+02
-5.304416E+02		4.354699E+02		9.497178E+01
-5.136564E+02		1.737037E+02		3.399526E+02
-4.002894E+02		6.227393E+02		-2.224499E+02
-1.296146E+02		4.379697E+02		-3.083551E+02
3.132033E+01		-1.863970E+02		1.550767E+02
-2.594066E+02		2.052232E+02		5.418340E+01
5.559540E+02		2.224913E+01		-5.782031E+02
6.021915E+02		-3.324134E+02		-2.697781E+02
-9.943729E+01		-2.899623E+02		3.893996E+02
3.188077E+01		-5.505567E+02		5.186760E+02
-2.457631E+02		2.346175E+02		1.114560E+01
-1.949524E+01		-1.452330E+02		1.647282E+02
-1.514444E+02		-8.558390E+01		2.370283E+02
4.699928E+02		1.664139E+02		-6.364067E+02
-1.330914E+02		-1.356165E+02		2.687079E+02
-1.261824E+02		-1.930164E+02		3.191988E+02
-2.517766E+02		8.462242E+01		1.671542E+02
-4.316878E+02		2.486905E+01		4.068188E+02
-4.157217E+02		5.783904E+02		-1.626687E+02
-3.633690E+02		6.181107E+02		-2.547417E+02
-3.080148E+02		2.407571E+02		6.725766E+01
-4.116072E+02		4.962065E+02		-8.459932E+01
-3.914798E+02		4.487064E+02		-5.722663E+01
7.113172E+02		-7.392496E+01		-6.373922E+02
4.558970E+02		1.522292E+02		-6.081262E+02
4.048203E+02		3.434435E+00		-4.082547E+02
5.259085E+02		-3.130596E+02		-2.128489E+02
4.418988E+02		-4.978065E+01		-3.921181E+02
3.354890E+02		9.913494E+01		-4.346240E+02
5.130118E+02		-1.910841E+02		-3.219278E+02
-5.011360E+02		8.895342E+02		-3.883982E+02
4.597269E+02		-7.829116E+01		-3.814357E+02
5.295983E+02		-2.876361E+02		-2.419621E+02
-5.015395E+02		-7.256269E+01		5.741022E+02
-5.047658E+02		-1.780778E+02		6.828435E+02
-4.632764E+02		-2.735250E+02		7.368014E+02
-4.117656E+02		-3.187440E+02		7.305096E+02
-4.719476E+02		2.549297E+00		4.693983E+02
5.021361E+02		-1.618760E+02		-3.402601E+02
4.825658E+02		-1.194135E+02		-3.631523E+02
1.341163E+02		-2.971687E+02		1.630524E+02
-4.809553E+02		-2.470791E+02		7.280345E+02
7.618762E+02		-2.617518E+02		-5.001244E+02
1.504788E+02		-4.041264E+02		2.536476E+02
1.438756E+02		-4.602441E+02		3.163686E+02
-5.308069E+02		3.642202E+02		1.665867E+02
-2.641664E+02		1.813838E+02		8.278262E+01
-2.836915E+02		1.128097E+02		1.708818E+02
-3.162444E+02		1.195052E+02		1.967392E+02
-4.094292E+02		4.121221E+02		-2.692916E+00
-4.897863E+02		4.408212E+02		4.896505E+01
-4.474548E+02		2.089120E+02		2.385427E+02
-4.766124E+02		1.767428E+02		2.998696E+02
7.619461E+02		-2.057823E+02		-5.561638E+02
-2.850285E+02		8.242768E+02		-5.392483E+02
-5.361520E+02		8.780617E+02		-3.419096E+02
-4.773227E+01		6.220450E+02		-5.743127E+02
3.935956E+02		-3.486887E+02		-4.490693E+01
-1.850221E+02		-8.674367E+01		2.717658E+02
-2.933264E+02		6.009743E+02		-3.076479E+02
1.508561E+02		-3.800361E+02		2.291800E+02
5.165843E+02		-3.361578E+02		-1.804266E+02
-1.148403E+02		1.721518E+02		-5.731150E+01
-1.970672E+02		2.198609E+02		-2.279372E+01
-2.418953E+02		2.244397E+02		1.745556E+01
7.636787E+02		-2.343623E+02		-5.293163E+02
7.277183E+02		-9.860099E+01		-6.291173E+02
6.377211E+02		-1.942341E+00		-6.357787E+02
7.267490E+02		-3.333528E+02		-3.933962E+02
6.685622E+02		-3.541504E+02		-3.144119E+02
-1.726006E+02		4.411123E+02		-2.685117E+02
-2.172821E+01		-3.399280E+02		3.616562E+02
-6.075025E+01		-3.072683E+02		3.680185E+02
1.112418E+02		-5.328615E+02		4.216196E+02
7.062420E+01		-5.534799E+02		4.828557E+02
-4.587248E+02		1.898544E+02		2.688704E+02
1.528338E+02		-2.778390E+02		1.250051E+02
-1.889707E+02		4.308881E+02		-2.419175E+02
-3.804421E+02		3.933864E+02		-1.294425E+01
4.376286E+01		-8.157740E+01		3.781454E+01
-6.785816E+00		4.686039E+02		-4.618181E+02
9.805526E+00		5.138771E+02		-5.236826E+02
-4.447573E+02		2.547614E+02		1.899959E+02
-4.613300E+02		2.968949E+02		1.644351E+02
-3.259940E+02		2.657825E+02		6.021144E+01
-3.667825E+02		3.484356E+02		1.834688E+01
-3.975790E+02		6.071046E+02		-2.095257E+02
-4.187076E+02		5.390808E+02		-1.203732E+02
1.591599E+02		-2.190808E+02		5.992095E+01
3.830627E+02		1.142510E+02		-4.973137E+02
-2.042237E+02		3.073560E+01		1.734881E+02
3.858754E+02		2.900300E+01		-4.148784E+02
-5.073824E+02		-1.184628E+02		6.258452E+02
-4.907882E+02		-3.286017E+01		5.236483E+02
-5.077723E+02		-1.456025E+02		6.533748E+02
-4.941265E+02		-2.194109E+02		7.135373E+02
-4.547081E+02		1.820541E+01		4.365027E+02
-4.829008E+02		-1.461546E+01		4.975162E+02
1.262895E+02		-2.877974E+02		1.615079E+02
1.491489E+02		-3.532343E+02		2.040855E+02
-2.663520E+02		1.379310E+02		1.284210E+02
-3.834759E+02		4.145377E+02		-3.106183E+01
-2.560438E+02		4.434413E+02		-1.873975E+02
-1.486599E+02		7.272070E+02		-5.785471E+02
-6.311607E+01		1.159982E+02		-5.288213E+01
4.003041E+02		1.208540E+02		-5.211582E+02
-4.462182E+01		8.152805E+01		-3.690624E+01
1.295038E+02		-1.555173E+02		2.601344E+01
-1.525828E+02		1.993344E+02		-4.675153E+01
-8.503504E+01		1.436162E+02		-5.858116E+01
7.566440E+02		-1.751445E+02		-5.814994E+02
7.559326E+02		-2.878772E+02		-4.680555E+02
3.622615E+02		-3.299292E+02		-3.233230E+01
1.334681E+02		-4.975226E+02		3.640545E+02
-3.284820E+02		6.175489E+02		-2.890669E+02
3.983769E+00		6.863458E+01		-7.261835E+01
-5.051110E+02		-9.447361E+01		5.995846E+02
-4.968209E+02		-5.213479E+01		5.489557E+02
-3.618386E+02		8.618774E+02		-5.000388E+02
5.900416E+02		2.020511E+01		-6.102468E+02
6.936707E+02		-4.980334E+01		-6.438673E+02
-4.448103E+02		1.385861E+02		3.062241E+02
-1.799471E+02		7.530369E+02		-5.730899E+02
-2.364149E+02		-7.485282E+01		3.112678E+02
6.327717E+02		-3.485749E+02		-2.841967E+02
7.009190E+02		-3.484646E+02		-3.524543E+02
4.995279E+02		2.309052E+02		-7.304330E+02
2.305978E+02		5.858988E+02		-8.164967E+02
6.423896E+01		-2.563691E+02		1.921301E+02
3.823631E+01		-2.371543E+02		1.989180E+02
-3.893468E+02		8.721836E+02		-4.828368E+02
-4.580513E+02		6.081865E+02		-1.501351E+02
-2.130019E+01		5.841613E+02		-5.628611E+02
-4.974938E+02		3.398557E+02		1.576381E+02
5.512377E+01		-1.197747E+02		6.465090E+01
-4.385153E+02		-2.991161E+02		7.376314E+02
-2.270521E+02		5.839884E+01		1.686532E+02
-2.761245E+02		1.171640E+02		1.589605E+02
1.746662E-01		5.435344E+02		-5.437091E+02
3.105252E+02		-2.800683E+02		-3.045689E+01
7.446079E+02		-3.124273E+02		-4.321806E+02
3.331366E+02		-3.057535E+02		-2.738306E+01
7.464540E+02		-1.402644E+02		-6.061896E+02
-5.124996E+02		4.414006E+02		7.109895E+01
-2.431227E+02		7.985627E+02		-5.554400E+02
3.521598E+02		7.390581E+01		-4.260656E+02
4.230674E+02		-2.197775E+01		-4.010896E+02
-9.652569E+01		6.781031E+02		-5.815775E+02
4.175035E+02		1.275920E+02		-5.450955E+02
-5.673092E+02		7.411050E+02		-1.737958E+02
-1.965898E+01		-1.451493E+02		1.648083E+02
-2.089711E+02		-8.317986E+01		2.921510E+02
-2.195723E+02		2.224730E+02		-2.900607E+00
-2.108971E+02		7.763796E+02		-5.654825E+02
-4.304030E+02		5.927420E+02		-1.623390E+02
4.673086E+02		-3.654979E+02		-1.018107E+02
1.481251E+02		-4.322357E+02		2.841106E+02
-2.772027E+02		2.074654E+02		6.973729E+01
-4.595743E+02		8.888585E+02		-4.292842E+02
-5.500641E+02		7.067779E+02		-1.567137E+02
3.522291E+02		1.045491E+02		-4.567782E+02
-3.336659E+02		8.495710E+02		-5.159051E+02
1.027420E+02		-1.224116E+02		1.966963E+01
5.214437E+02		-2.196662E+02		-3.017775E+02
1.399718E+02		-4.772108E+02		3.372390E+02
-1.266366E+02		-1.649477E+02		2.915843E+02
-5.233041E+02		8.851181E+02		-3.618141E+02
-3.446978E+02		4.395099E+02		-9.481207E+01
-4.508987E+02		4.305037E+02		2.039502E+01
4.420387E+01		-1.735806E+02		1.293768E+02
-3.403179E+02		1.179623E+02		2.223556E+02
4.822304E+02		1.828795E+02		-6.651099E+02
-2.633524E+02		1.581951E+02		1.051573E+02
-3.239554E+02		4.457086E+02		-1.217532E+02
-1.835460E+02		1.295406E+00		1.822506E+02
-5.808830E+02		8.220795E+02		-2.411966E+02
-5.277468E+02		6.739248E+02		-1.461780E+02
2.929813E+02		-2.497920E+02		-4.318926E+01
5.008784E+02		2.528134E+02		-7.536918E+02
-1.024524E+01		-1.737800E+02		1.840252E+02
1.080598E+01		4.852722E+02		-4.960782E+02
-3.678326E+02		1.014942E+02		2.663383E+02
7.786125E+01		-9.994228E+01		2.208103E+01
-4.530431E+02		4.981666E+01		4.032265E+02
2.189846E+02		5.568479E+02		-7.758325E+02
4.998449E+02		2.760742E+02		-7.759191E+02
1.629458E+02		-2.483938E+02		8.544801E+01
-3.481055E+02		3.047138E+02		4.339173E+01
4.825979E+02		3.338988E+02		-8.164967E+02
-2.146210E+02		4.351826E+02		-2.205616E+02
9.341224E+01		-5.458846E+02		4.524724E+02
1.242132E+02		-5.163579E+02		3.921447E+02
-3.684313E+02		4.238804E+02		-5.544907E+01
4.946212E+02		3.006546E+02		-7.952758E+02
-4.693773E+02		8.586349E+01		3.835139E+02
2.287477E+02		5.318554E+02		-7.606031E+02
8.104924E+00		-2.042379E+02		1.961329E+02
-4.022594E+02		5.911722E+02		-1.889128E+02
-4.952613E+02		6.378958E+02		-1.426345E+02
-4.241599E+02		8.823908E+02		-4.582309E+02
5.228762E+01		-1.583385E+02		1.060509E+02
1.488017E+02		-1.897692E+02		4.096750E+01
-5.661124E+02		8.481013E+02		-2.819889E+02
-1.426897E+02		-1.081121E+02		2.508018E+02
-2.899169E+02		4.471786E+02		-1.572617E+02
5.280216E+02		-2.536029E+02		-2.744187E+02
-3.990971E+02		1.264830E+02		2.726141E+02
-5.797167E+02		7.826767E+02		-2.029600E+02
-1.614342E+02		-3.956081E+01		2.009950E+02
-2.492247E+02		2.052509E+02		4.397386E+01
1.445804E+02		-3.269514E+02		1.823710E+02
-1.221153E+02		7.032687E+02		-5.811533E+02
4.376710E+02		1.387504E+02		-5.764214E+02
-7.186154E+01		6.513808E+02		-5.795193E+02
4.965567E+02		-3.562712E+02		-1.402855E+02
4.929151E+02		2.048750E+02		-6.977901E+02
4.315719E+02		-3.625385E+02		-6.903341E+01
6.664411E+02		-2.306232E+01		-6.433788E+02
-3.584119E+02		1.112030E+02		2.472089E+02
9.042962E+01		-2.715948E+02		1.811652E+02
-4.431808E+02		2.295980E+02		2.135827E+02
-4.696069E+02		1.199400E+02		3.496670E+02
5.601792E+01		-1.406384E+02		8.462049E+01
LINES 228 684
2		0		29
2		1		31
2		2		73
2		3		206
2		4		209
2		5		94
2		6		129
2		7		191
2		8		50
2		9		137
2		10		164
2		11		85
2		12		59
2		13		195
2		14		157
2		15		66
2		16		211
2		17		84
2		18		183
2		19		223
2		20		133
2		21		138
2		22		86
2		23		88
2		24		223
2		25		164
2		26		217
2		26		222
2		26		72
2		27		185
2		27		38
2		28		179
2		28		217
2		29		179
2		30		150
2		30		61
2		31		110
2		31		197
2		32		101
2		32		211
2		33		100
2		33		128
2		34		171
2		34		98
2		35		101
2		35		36
2		36		206
2		37		134
2		37		80
2		38		226
2		39		160
2		39		105
2		40		75
2		40		46
2		41		160
2		41		45
2		42		159
2		42		174
2		43		177
2		43		52
2		44		172
2		44		180
2		45		53
2		46		219
2		47		130
2		47		131
2		48		108
2		48		109
2		49		149
2		49		55
2		50		149
2		51		110
2		51		111
2		52		53
2		54		224
2		54		112
2		55		109
2		56		125
2		56		79
2		57		170
2		57		74
2		58		170
2		58		178
2		59		147
2		60		171
2		60		186
2		61		62
2		61		151
2		62		184
2		63		92
2		63		182
2		64		182
2		64		157
2		65		89
2		65		234
2		66		89
2		67		124
2		67		79
2		68		175
2		68		158
2		69		180
2		70		146
2		70		227
2		71		230
2		71		126
2		72		165
2		73		128
2		74		113
2		75		228
2		76		122
2		76		123
2		77		122
2		77		166
2		78		166
2		78		223
2		80		156
2		81		133
2		81		231
2		82		139
2		82		154
2		83		139
2		83		138
2		84		91
2		85		86
2		87		204
2		87		205
2		88		204
2		90		200
2		90		112
2		91		203
2		92		99
2		92		115
2		93		148
2		93		196
2		94		194
2		95		152
2		95		194
2		96		234
2		96		97
2		97		147
2		98		201
2		99		201
2		100		211
2		102		215
2		102		200
2		103		174
2		103		119
2		104		188
2		104		150
2		105		159
2		106		108
2		106		130
2		107		111
2		107		131
2		112		233
2		113		224
2		114		151
2		114		186
2		115		206
2		116		203
2		116		218
2		117		136
2		117		225
2		118		123
2		118		120
2		119		162
2		121		215
2		121		176
2		124		156
2		125		154
2		126		155
2		127		205
2		127		178
2		132		175
2		132		144
2		134		231
2		135		235
2		135		220
2		136		167
2		137		165
2		140		229
2		140		192
2		141		198
2		142		233
2		142		143
2		143		210
2		144		213
2		145		168
2		145		212
2		146		152
2		148		236
2		153		191
2		153		155
2		158		167
2		161		225
2		161		227
2		162		226
2		163		221
2		163		173
2		164		193
2		168		211
2		169		230
2		169		228
2		171		223
2		172		213
2		173		190
2		176		196
2		177		219
2		181		187
2		181		206
2		183		214
2		184		232
2		185		229
2		187		218
2		188		222
2		189		216
2		189		221
2		190		212
2		192		199
2		193		210
2		195		232
2		195		220
2		197		208
2		198		209
2		199		207
2		202		207
2		208		235
2		214		236
POINT_DATA 237
scalars NodeType integer
LOOKUP_TABLE default
7
7
7
7
7
7
7
7
7
7
7
7
7
7
7
7
7
7
7
7
7
7
7
7
7
7
0
0
0
0
0
0
0
0
0
0
0
0
0
0
0
0
0
0
0
0
0
0
0
0
0
0
0
0
0
0
0
0
0
0
0
0
0
0
0
0
0
0
0
8
0
0
0
0
0
0
0
0
0
0
0
0
0
0
0
0
0
0
0
0
0
0
0
9
0
0
0
0
0
0
0
0
0
0
0
0
0
0
0
0
0
0
0
0
0
0
0
0
0
0
9
0
0
0
0
0
0
0
0
9
0
0
0
0
0
0
0
0
0
0
0
8
0
0
0
0
0
0
0
0
0
0
0
0
0
0
0
0
0
0
0
0
0
0
0
0
0
0
0
0
0
0
0
0
0
0
0
0
0
0
0
0
0
0
0
0
0
0
0
0
0
0
0
0
0
0
0
0
0
0
0
0
8
0
0
0
0
0
0
0
0
0
0
0
0
0
8
0
0
0
0
0
0
0
0
0
0
0
0
0
0
0
0
0
0
0
0
CELL_DATA 228
SCALARS SlipSystem integer
LOOKUP_TABLE default
3
3
3
3
1
1
1
1
2
2
2
2
2
2
2
2
1
1
3
3
2
2
2
2
1
1
3
1
2
1
1
3
3
3
1
1
2
1
3
3
3
3
3
3
3
3
3
2
2
1
1
1
1
1
1
1
1
1
1
1
1
1
1
1
2
2
2
2
2
2
2
2
2
1
2
2
2
2
2
2
2
2
2
2
2
2
3
2
3
2
2
2
2
2
2
2
2
2
1
1
1
1
1
1
1
2
3
2
1
3
3
3
3
3
3
2
2
2
2
2
2
2
1
2
2
2
2
1
1
1
3
1
3
1
1
1
1
2
2
2
3
3
3
1
1
1
1
1
1
1
2
2
2
2
3
2
2
2
1
1
1
1
1
3
3
1
1
1
2
2
1
2
2
1
1
2
1
1
1
2
1
1
1
3
3
3
1
1
1
1
3
1
1
1
1
1
1
1
1
3
1
1
1
1
1
1
1
1
1
1
3
3
1
1
1
1
1
1
1
3
3
1
1
1
1
1
1
3
