# vtk DataFile Version 1.0
dislocation microstructure
ASCII
DATASET POLYDATA
POINTS 281 float
-1.407136E+02		-2.213016E+02		3.620151E+02
-4.069171E+02		1.959506E+01		3.873221E+02
-2.678171E+02		5.735064E+02		-3.056893E+02
-3.585793E+02		4.159045E+02		-5.732522E+01
2.435975E+02		5.088909E+02		-7.524885E+02
-3.645297E+01		4.790810E+02		-4.426281E+02
1.137360E+01		4.804267E+01		-5.941627E+01
2.977420E+02		-2.208350E+02		-7.690702E+01
-3.705953E+02		-3.364613E+02		7.070566E+02
-2.633774E+02		-5.962946E+01		3.230069E+02
-5.059046E+01		-1.177741E+02		1.683646E+02
-3.709113E+00		-3.770962E+02		3.808053E+02
-5.645235E+02		3.793574E+02		1.851661E+02
-3.703694E+02		9.044315E+01		2.799262E+02
-5.304416E+02		4.354699E+02		9.497178E+01
-5.136564E+02		1.737037E+02		3.399526E+02
-4.002894E+02		6.227393E+02		-2.224499E+02
-1.296146E+02		4.379697E+02		-3.083551E+02
3.132033E+01		-1.863970E+02		1.550767E+02
-2.594066E+02		2.052232E+02		5.418340E+01
5.559540E+02		2.224913E+01		-5.782031E+02
6.021915E+02		-3.324134E+02		-2.697781E+02
-9.943729E+01		-2.899623E+02		3.893996E+02
3.188077E+01		-5.505567E+02		5.186760E+02
-2.457631E+02		2.346175E+02		1.114560E+01
-1.949524E+01		-1.452330E+02		1.647282E+02
-1.170705E+02		-2.168660E+02		3.339365E+02
8.969012E+02		-3.302912E+02		-5.666101E+02
-4.542803E+02		-3.669065E+01		4.909710E+02
-2.905227E+02		6.225300E+02		-3.320073E+02
-1.285488E+02		1.967953E+02		-6.824654E+01
-4.278042E+02		-2.610005E+01		4.539043E+02
1.183775E+02		-4.189899E+02		3.006124E+02
-4.040806E+02		6.660727E+02		-2.619922E+02
-4.007990E+02		2.956334E+02		1.051655E+02
7.614314E+02		-4.188049E+02		-3.426265E+02
-3.684673E+02		2.629532E+02		1.055141E+02
-5.364168E+02		3.571208E+02		1.792960E+02
-5.763496E+02		4.290658E+02		1.472839E+02
-6.733280E+02		1.294875E+02		5.438404E+02
-3.663503E+02		6.850853E+02		-3.187350E+02
7.199566E+02		-6.291300E+01		-6.570436E+02
1.097886E+01		-1.621882E+02		1.512094E+02
7.886229E+02		-2.615533E+02		-5.270696E+02
2.983187E+02		-8.579961E+01		-2.125191E+02
7.368327E+02		-9.805602E+01		-6.387767E+02
8.089420E+02		-1.792897E+00		-8.071491E+02
-5.969839E+02		-2.685766E+00		5.996697E+02
-6.207518E+02		-1.434937E+02		7.642455E+02
-4.894913E+02		-3.124620E+02		8.019533E+02
-4.043563E+02		-3.432173E+02		7.475736E+02
-5.499698E+02		2.433490E+02		3.066208E+02
7.776321E+02		-2.144256E+02		-5.632065E+02
7.572782E+02		-1.495120E+02		-6.077662E+02
2.926786E+02		4.442947E+02		-7.369733E+02
-5.373989E+02		-2.760009E+02		8.133998E+02
8.916557E+02		-3.492599E+02		-5.423958E+02
2.316421E+02		-5.130399E+02		2.813978E+02
-3.257278E+02		6.719537E+02		-3.462258E+02
-4.804837E+02		3.515134E+02		1.289702E+02
-4.176533E+02		6.025548E+02		-1.849015E+02
-1.750657E+01		3.644304E+02		-3.469238E+02
-6.895148E+01		4.961458E+02		-4.271943E+02
-6.299445E+02		4.707007E+02		1.592438E+02
-5.381471E+02		4.082873E+02		1.298597E+02
2.710679E+02		3.405039E+02		-6.115718E+02
-5.386277E+02		4.113529E+02		1.272748E+02
9.019330E+02		-2.668024E+02		-6.351306E+02
2.641018E+02		4.924783E+02		-7.565801E+02
2.920585E+02		3.882247E+02		-6.802832E+02
4.020112E+02		-6.020071E+02		1.999960E+02
-1.809399E+02		-1.658751E+02		3.468150E+02
3.503978E+02		-1.814188E+02		-1.689790E+02
-9.167333E+01		5.217154E+02		-4.300421E+02
7.925782E+02		-5.690398E+02		-2.235383E+02
-7.868579E+01		2.050560E+02		-1.263702E+02
-2.271946E+02		2.774465E+02		-5.025189E+01
7.939716E+02		-3.537633E+02		-4.402083E+02
9.004278E+02		-3.101014E+02		-5.903264E+02
8.328384E+02		-7.648176E+01		-7.563566E+02
7.178188E+02		-3.338459E+01		-6.844342E+02
8.102400E+02		-4.350915E+02		-3.751485E+02
-3.064379E+01		-2.501693E+02		2.808131E+02
-1.294109E+02		5.649373E+02		-4.355264E+02
-1.957472E+01		-3.416225E+02		3.611972E+02
-5.956862E+01		-3.074021E+02		3.669707E+02
1.600840E+02		-5.993946E+02		4.393106E+02
7.616550E+01		-5.829069E+02		5.067414E+02
-5.529793E+02		2.955372E+02		2.574421E+02
2.587036E+02		-5.441299E+02		2.854263E+02
-2.095333E+02		6.311661E+02		-4.216328E+02
8.872355E+02		-1.872660E+02		-6.999695E+02
4.332796E+01		-8.159741E+01		3.826945E+01
-5.795746E+01		4.036934E+02		-3.457359E+02
2.815146E+02		3.634288E+02		-6.449434E+02
-5.273702E+02		3.723224E+02		1.550478E+02
-9.841542E+01		1.685731E+02		-7.015764E+01
-8.692848E+00		-2.920290E+02		3.007218E+02
8.996644E+02		-2.424569E+02		-6.572075E+02
-5.550844E+02		2.593565E+02		2.957278E+02
8.001913E+02		-5.345942E+02		-2.655971E+02
-9.039683E+01		4.136480E+02		-3.232512E+02
-3.472826E+02		9.353116E+01		2.537514E+02
6.710328E+02		-1.528292E+01		-6.557499E+02
1.257666E+02		5.660558E+01		-1.823722E+02
-6.263441E+02		-5.323200E+01		6.795761E+02
-4.283162E+02		3.183771E+02		1.099391E+02
-6.290127E+02		-9.175330E+01		7.207660E+02
-5.831736E+02		-2.237458E+02		8.069194E+02
1.975737E+02		-4.818994E+02		2.843257E+02
-5.596188E+02		-9.727048E+00		5.693458E+02
1.512668E+02		-4.444885E+02		2.932217E+02
3.187213E+02		-1.149662E+02		-2.037551E+02
-6.828498E+02		5.222423E+02		1.606075E+02
-7.603368E+00		-1.722888E+02		1.798922E+02
-3.260401E+02		6.555154E+02		-3.294754E+02
3.266423E+01		-1.501431E+02		1.174789E+02
-3.601917E+01		1.107292E+02		-7.471004E+01
-4.300447E+02		5.425889E+02		-1.125442E+02
-4.336500E+01		8.159583E+01		-3.823083E+01
2.643647E+02		-4.589988E+01		-2.184648E+02
-1.489109E+02		2.670903E+02		-1.181794E+02
-4.839910E+01		1.539239E+02		-1.055249E+02
8.952690E+02		-2.174773E+02		-6.777918E+02
8.752211E+02		-3.842168E+02		-4.910042E+02
3.565305E+02		-5.863522E+02		2.298217E+02
2.204305E+02		-5.802513E+02		3.598208E+02
-3.461738E+02		6.854717E+02		-3.392979E+02
2.705517E+00		6.931909E+01		-7.202461E+01
-6.154150E+02		-2.338462E+01		6.387996E+02
-6.173574E+01		1.796507E+02		-1.179149E+02
3.316018E+02		-2.359878E+02		-9.561403E+01
6.526561E+02		-3.718788E+02		-2.807773E+02
7.838487E+02		-2.125150E+01		-7.625972E+02
4.424452E+02		-6.156441E+02		1.731989E+02
8.843310E+02		-3.675714E+02		-5.167596E+02
-2.538310E+02		-9.466741E+01		3.484984E+02
7.476873E+02		-1.240954E+02		-6.235919E+02
-6.206354E+02		4.262024E+01		5.780152E+02
-5.827026E+02		2.102419E+00		5.806002E+02
1.076466E+01		-3.169422E+02		3.061775E+02
-2.533055E+01		-2.660168E+02		2.913473E+02
2.180101E+02		2.826670E+02		-5.006771E+02
-6.083774E+02		4.523682E+02		1.560091E+02
-5.410869E+01		1.058843E+02		-5.177557E+01
-5.450282E+02		3.414383E+02		2.035899E+02
5.979622E+01		-1.179356E+02		5.813939E+01
-4.441813E+02		-3.345591E+02		7.787404E+02
-7.302781E+01		1.380258E+02		-6.499802E+01
7.832995E+02		-2.380329E+02		-5.452666E+02
5.787688E+02		2.278744E+01		-6.015562E+02
-3.167033E+02		1.781610E+02		1.385423E+02
8.488895E+02		-4.145151E+02		-4.343744E+02
9.346825E+01		2.902413E+02		-3.837096E+02
8.759460E+02		-1.562016E+02		-7.197444E+02
6.300253E+02		-6.537563E+02		2.373103E+01
7.037478E+02		-3.921733E+02		-3.115746E+02
5.429115E+02		-6.436729E+02		1.007613E+02
-6.808821E+02		2.627002E+02		4.181819E+02
-6.264578E+02		-1.170117E+02		7.434695E+02
7.930060E+02		-2.892242E+02		-5.037818E+02
-7.779068E+02		6.207241E+02		1.571827E+02
6.868489E+02		-6.482501E+02		-3.859881E+01
-2.173396E+02		-1.355278E+02		3.528674E+02
-2.480986E+02		2.570237E+02		-8.925039E+00
9.020426E+02		-2.889174E+02		-6.131253E+02
-1.508010E+02		-1.897170E+02		3.405180E+02
6.001831E+02		-6.523626E+02		5.217946E+01
6.424945E+02		3.813818E-01		-6.428758E+02
-4.010534E+02		4.570928E+02		-5.603942E+01
8.310489E+02		-4.265688E+02		-4.044801E+02
-7.470979E+02		5.892380E+02		1.578599E+02
7.370643E+02		-6.299573E+02		-1.071069E+02
-6.461528E+02		2.822469E+02		3.639060E+02
1.799860E+02		2.646967E+01		-2.064557E+02
7.953565E+02		-3.167079E+02		-4.786486E+02
2.422794E+02		-5.633424E+02		3.210630E+02
-5.209550E+01		-2.502093E+02		3.023048E+02
1.910494E+02		2.745595E+02		-4.656088E+02
-3.624175E+02		6.614644E+02		-2.990470E+02
-4.238656E+02		5.070227E+02		-8.315719E+01
4.953096E+01		-1.804146E+02		1.308836E+02
-3.125619E+02		1.408917E+02		1.716702E+02
-3.049747E+02		6.506537E+02		-3.456790E+02
-6.944502E+02		2.110761E+02		4.833741E+02
-3.859775E+02		6.836264E+02		-2.976489E+02
-4.687725E+01		8.133416E+01		-3.445690E+01
-7.856854E+02		6.285283E+02		1.571571E+02
-7.093330E+02		5.497533E+02		1.595797E+02
3.358322E+02		-1.449143E+02		-1.909178E+02
8.135564E+02		2.940219E+00		-8.164967E+02
-8.799127E+00		-2.000013E+02		2.088004E+02
1.602981E+02		2.733818E+02		-4.336799E+02
-3.241994E+02		1.101011E+02		2.140982E+02
5.987301E+01		1.814070E+01		-7.801371E+01
-4.977365E+02		-3.314755E+01		5.308840E+02
2.809900E+02		4.702564E+02		-7.512464E+02
7.776705E+02		-5.955587E+02		-1.821118E+02
-4.285193E+02		5.715513E+02		-1.430319E+02
-5.135636E+02		3.676124E+02		1.459512E+02
-2.777669E+02		5.979337E+02		-3.201669E+02
-2.882455E+02		6.620593E+02		-3.738138E+02
1.217049E+02		-5.972493E+02		4.755444E+02
1.929962E+02		-5.930517E+02		4.000554E+02
-1.515098E+01		-1.495348E+02		1.646857E+02
8.740917E+01		-3.935412E+02		3.061320E+02
-6.500893E+02		8.502350E+01		5.650658E+02
2.977197E+02		4.178108E+02		-7.155305E+02
-5.138985E+02		-2.951965E+02		8.090950E+02
-4.092542E+02		6.524613E+02		-2.432071E+02
-6.570069E+02		4.962073E+02		1.607996E+02
7.993908E+02		-5.109343E+02		-2.884565E+02
5.979741E+01		-1.640429E+02		1.042455E+02
7.529340E+02		-2.561593E+01		-7.273181E+02
-3.374513E+02		2.219488E+02		1.155025E+02
-4.554718E+02		3.371458E+02		1.183260E+02
-1.101360E+02		2.394742E+02		-1.293383E+02
7.799621E+02		-3.933837E+02		-3.865785E+02
6.248007E+02		-3.548397E+02		-2.699610E+02
2.515842E+01		-7.984949E+01		5.469107E+01
-2.483291E+02		2.387259E+02		9.603226E+00
-3.811115E+02		4.318013E+02		-5.068974E+01
1.717873E+02		-4.606925E+02		2.889052E+02
-5.617792E+02		-2.511008E+02		8.128800E+02
3.702074E+01		-1.216681E+02		8.464736E+01
-2.235344E+02		2.438040E+02		-2.026954E+01
-4.148209E+02		4.825718E+02		-6.775084E+01
7.134158E+02		-6.406675E+02		-7.274830E+01
2.957871E+02		-5.634382E+02		2.676510E+02
4.881631E+02		-6.299374E+02		1.417743E+02
8.630682E+02		-4.006203E+02		-4.624479E+02
-4.107731E+02		-4.729990E+00		4.155030E+02
5.092086E+01		-3.601226E+02		3.092018E+02
7.825616E+02		-4.439729E+02		-3.385887E+02
6.330633E+01		6.708936E+01		-1.303957E+02
-6.215260E+02		2.821903E+02		3.393358E+02
6.299144E+01		-1.441887E+02		8.119725E+01
-1.678757E+02		6.008703E+02		-4.329946E+02
6.586973E+02		-6.525133E+02		-6.184037E+00
3.752215E+02		-5.928377E+02		2.176161E+02
-6.890796E+02		1.753233E+02		5.137564E+02
7.585170E+02		-6.154238E+02		-1.430932E+02
3.277074E+01		3.237200E+02		-3.564907E+02
2.546468E+02		3.126658E+02		-5.673126E+02
-5.266183E+02		2.134377E+02		3.131806E+02
-8.091592E+01		-2.394117E+02		3.203276E+02
-3.934124E+02		6.519111E+02		-2.584987E+02
-1.925163E+02		2.813348E+02		-8.881849E+01
1.528761E+02		4.308931E+01		-1.959654E+02
7.435454E+02		-4.034936E+02		-3.400518E+02
3.534827E+02		-2.179795E+02		-1.355032E+02
6.171004E+02		1.186479E+01		-6.289652E+02
7.679256E+02		-1.811371E+02		-5.867886E+02
2.251977E+02		-8.307134E+00		-2.168906E+02
-6.668666E+02		2.765132E+02		3.903534E+02
7.958355E+02		-4.862090E+02		-3.096265E+02
-6.066566E+02		-1.823420E+02		7.889985E+02
-5.753322E+02		2.644846E+02		3.108476E+02
-1.938696E+02		2.371280E+02		-4.325835E+01
-1.617986E+02		2.208538E+02		-5.905516E+01
8.574046E+02		-1.171474E+02		-7.402571E+02
3.242016E+02		-5.747531E+02		2.505516E+02
5.717913E+02		-6.489282E+02		7.713693E+01
-6.907413E+02		2.449642E+02		4.457771E+02
-4.067455E+02		6.180400E+02		-2.112945E+02
-5.491037E+02		3.186983E+02		2.304054E+02
5.159117E+02		-6.374269E+02		1.215153E+02
-2.462739E+02		6.506488E+02		-4.043749E+02
8.149960E+02		-5.205696E+01		-7.629390E+02
1.277591E+02		2.787492E+02		-4.065083E+02
2.382843E+02		2.956230E+02		-5.339073E+02
6.789048E+02		-3.835834E+02		-2.953214E+02
9.353877E+01		6.710834E+01		-1.606471E+02
4.869244E+01		4.734007E+01		-9.603250E+01
6.327951E+01		3.048221E+02		-3.681016E+02
-5.254115E+02		-2.456229E+01		5.499738E+02
-1.387729E+01		-2.203204E+02		2.341977E+02
7.002877E+02		-3.334832E+01		-6.669394E+02
7.887167E+02		-3.742144E+02		-4.145023E+02
7.303446E+00		3.428523E+02		-3.501558E+02
-3.976821E+01		3.862100E+02		-3.464418E+02
LINES 274 822
2		0		26
2		1		231
2		2		200
2		3		221
2		4		68
2		5		62
2		6		128
2		7		131
2		8		50
2		9		136
2		10		204
2		11		84
2		12		95
2		13		102
2		14		66
2		15		244
2		16		209
2		17		101
2		18		181
2		19		220
2		20		150
2		21		218
2		22		85
2		23		87
2		24		220
2		25		204
2		26		166
2		26		245
2		27		78
2		27		56
2		28		195
2		28		31
2		29		200
2		29		183
2		30		259
2		30		96
2		31		231
2		32		205
2		32		111
2		33		185
2		33		209
2		34		36
2		34		106
2		35		217
2		35		249
2		35		233
2		36		214
2		37		145
2		37		95
2		38		66
2		38		143
2		39		240
2		39		206
2		40		185
2		40		127
2		41		277
2		41		45
2		42		204
2		42		116
2		43		160
2		43		149
2		44		120
2		44		112
2		45		137
2		46		133
2		46		190
2		47		129
2		47		139
2		48		256
2		48		159
2		49		147
2		49		208
2		50		147
2		51		244
2		51		99
2		51		257
2		52		149
2		52		252
2		53		252
2		53		137
2		54		207
2		54		196
2		55		208
2		55		223
2		56		135
2		57		89
2		57		109
2		58		127
2		58		183
2		59		215
2		59		199
2		60		198
2		60		264
2		61		279
2		61		280
2		62		73
2		63		210
2		63		143
2		64		95
2		64		66
2		65		243
2		65		94
2		67		98
2		67		165
2		68		196
2		69		207
2		69		94
2		70		134
2		70		239
2		71		163
2		71		166
2		72		189
2		72		250
2		73		83
2		74		197
2		74		100
2		75		216
2		75		130
2		76		164
2		76		247
2		77		175
2		77		278
2		78		165
2		79		268
2		79		260
2		80		213
2		80		277
2		81		233
2		81		170
2		82		177
2		82		276
2		82		141
2		83		237
2		84		85
2		86		202
2		86		203
2		87		202
2		88		99
2		88		265
2		89		228
2		89		176
2		90		237
2		90		267
2		91		154
2		91		123
2		92		146
2		93		280
2		93		101
2		95		199
2		96		148
2		97		141
2		97		140
2		98		123
2		100		211
2		102		193
2		103		277
2		103		168
2		104		272
2		104		248
2		105		107
2		105		129
2		106		215
2		107		159
2		108		223
2		108		256
2		109		222
2		110		139
2		110		275
2		111		222
2		112		189
2		113		210
2		113		188
2		114		204
2		114		191
2		115		179
2		115		183
2		116		224
2		117		122
2		117		119
2		118		198
2		118		180
2		120		253
2		121		247
2		121		216
2		122		130
2		124		135
2		124		230
2		125		239
2		125		261
2		126		203
2		126		176
2		131		250
2		132		218
2		132		271
2		133		213
2		133		268
2		134		229
2		136		163
2		138		206
2		138		139
2		140		232
2		142		178
2		142		270
2		144		148
2		144		186
2		145		265
2		146		236
2		150		251
2		151		182
2		151		214
2		152		230
2		152		170
2		153		269
2		153		274
2		154		260
2		155		238
2		155		167
2		156		271
2		156		249
2		157		262
2		157		266
2		158		263
2		158		254
2		160		175
2		161		171
2		161		187
2		162		238
2		162		227
2		164		220
2		167		262
2		168		251
2		169		221
2		169		226
2		171		188
2		172		241
2		172		227
2		173		254
2		173		235
2		174		248
2		174		253
2		177		245
2		178		192
2		179		246
2		180		226
2		181		212
2		182		193
2		183		201
2		184		263
2		184		240
2		191		276
2		192		269
2		194		273
2		195		275
2		197		241
2		201		267
2		205		232
2		209		246
2		211		255
2		212		236
2		217		278
2		219		224
2		220		225
2		225		258
2		228		261
2		229		266
2		233		255
2		234		272
2		234		273
2		235		257
2		242		279
2		242		274
2		243		270
2		246		264
2		258		259
POINT_DATA 281
scalars NodeType integer
LOOKUP_TABLE default
7
7
7
7
7
7
7
7
7
7
7
7
7
7
7
7
7
7
7
7
7
7
7
7
7
7
0
0
0
0
0
0
0
0
0
0
0
0
0
0
0
0
0
0
0
0
0
0
0
0
0
0
0
0
0
0
0
0
0
0
0
0
0
0
0
0
0
0
0
0
0
0
0
0
0
0
0
0
0
0
0
0
0
0
0
0
0
0
0
0
0
0
9
0
0
0
0
0
0
0
0
0
0
0
0
0
0
0
0
0
0
0
0
0
0
0
0
0
0
9
0
0
0
0
0
0
0
0
9
0
0
0
0
0
0
0
0
0
0
0
0
0
0
0
0
0
0
0
0
0
0
0
0
0
0
0
0
0
0
0
0
0
0
0
0
0
0
0
0
0
0
0
0
0
0
0
0
0
0
0
0
0
0
0
0
0
9
8
0
0
8
0
0
0
9
0
0
0
0
0
0
0
0
0
0
0
0
0
0
0
0
0
0
0
0
0
0
0
0
9
0
0
0
0
0
0
0
0
0
0
0
0
0
0
0
0
0
0
0
0
0
0
0
0
0
0
0
0
0
0
0
0
0
0
0
0
0
0
0
0
0
0
0
0
0
0
0
0
0
0
0
0
0
0
0
0
0
0
0
0
0
CELL_DATA 274
SCALARS SlipSystem integer
LOOKUP_TABLE default
3
3
3
3
1
1
1
1
2
2
2
2
2
2
2
2
1
1
3
3
2
2
2
2
1
1
2
1
2
2
3
3
3
3
1
1
3
3
3
3
3
2
2
1
2
3
2
3
3
1
1
1
1
3
3
1
1
1
1
1
1
1
1
1
1
1
2
2
2
2
2
2
2
2
3
1
1
1
1
1
1
1
2
2
2
3
3
3
3
2
2
3
3
1
1
1
1
1
3
3
1
1
2
2
1
1
1
1
1
2
2
1
1
1
1
1
3
3
3
3
1
1
2
2
2
3
3
2
2
1
2
3
1
2
2
2
2
3
3
1
2
1
1
2
2
3
1
1
2
1
3
3
2
1
2
2
2
1
1
2
2
2
2
2
2
3
3
3
3
1
1
1
2
2
1
1
1
3
3
3
3
1
3
3
3
2
2
1
1
2
2
1
2
2
3
2
1
2
1
1
3
1
1
1
1
3
3
2
2
2
2
2
1
1
2
1
1
2
2
1
1
1
1
1
1
1
1
1
3
1
2
3
3
1
1
1
1
1
1
1
1
1
1
3
3
2
1
1
1
2
1
1
3
1
1
3
2
1
3
1
1
1
1
1
1
1
1
1
1
1
1
1
3
1
