# vtk DataFile Version 1.0
dislocation microstructure
ASCII
DATASET POLYDATA
POINTS 227 float
-1.407136E+02		-2.213016E+02		3.620151E+02
-4.069171E+02		1.959506E+01		3.873221E+02
-2.678171E+02		5.735064E+02		-3.056893E+02
-3.585793E+02		4.159045E+02		-5.732522E+01
2.435975E+02		5.088909E+02		-7.524885E+02
-3.645297E+01		4.790810E+02		-4.426281E+02
1.137360E+01		4.804267E+01		-5.941627E+01
2.977420E+02		-2.208350E+02		-7.690702E+01
-3.705953E+02		-3.364613E+02		7.070566E+02
-2.633774E+02		-5.962946E+01		3.230069E+02
-5.059046E+01		-1.177741E+02		1.683646E+02
-3.709113E+00		-3.770962E+02		3.808053E+02
-5.645235E+02		3.793574E+02		1.851661E+02
-3.703694E+02		9.044315E+01		2.799262E+02
-5.304416E+02		4.354699E+02		9.497178E+01
-5.136564E+02		1.737037E+02		3.399526E+02
-4.002894E+02		6.227393E+02		-2.224499E+02
-1.296146E+02		4.379697E+02		-3.083551E+02
3.132033E+01		-1.863970E+02		1.550767E+02
-2.594066E+02		2.052232E+02		5.418340E+01
5.559540E+02		2.224913E+01		-5.782031E+02
6.021915E+02		-3.324134E+02		-2.697781E+02
-9.943729E+01		-2.899623E+02		3.893996E+02
3.188077E+01		-5.505567E+02		5.186760E+02
-2.457631E+02		2.346175E+02		1.114560E+01
-1.949524E+01		-1.452330E+02		1.647282E+02
-1.682845E+02		-7.646789E+01		2.447523E+02
4.426273E+02		1.926358E+02		-6.352631E+02
-1.399947E+02		-1.341521E+02		2.741468E+02
-1.291792E+02		-1.907344E+02		3.199136E+02
-4.309629E+02		2.426867E+01		4.066942E+02
-4.240566E+02		2.523560E+01		3.988210E+02
-4.049126E+02		5.702529E+02		-1.653403E+02
-3.586401E+02		6.107934E+02		-2.521533E+02
-2.792690E+02		2.112092E+02		6.805982E+01
-4.056954E+02		4.947289E+02		-8.903350E+01
-3.878769E+02		4.499352E+02		-6.205825E+01
2.967125E+02		1.356864E+02		-4.323989E+02
4.299034E+02		1.797341E+02		-6.096375E+02
3.835087E+02		-5.480198E+00		-3.780285E+02
4.984667E+02		-2.945452E+02		-2.039215E+02
4.199127E+02		-5.514122E+01		-3.647714E+02
2.881433E+02		1.028337E+02		-3.909770E+02
4.868569E+02		-1.859194E+02		-3.009375E+02
-4.856648E+02		8.614453E+02		-3.757805E+02
4.366901E+02		-8.125771E+01		-3.554324E+02
5.020324E+02		-2.730834E+02		-2.289490E+02
-4.882333E+02		-8.095954E+01		5.691928E+02
-4.928977E+02		-1.823306E+02		6.752283E+02
-4.584170E+02		-2.714510E+02		7.298680E+02
-4.117320E+02		-3.161778E+02		7.279098E+02
-4.635156E+02		-5.032590E+00		4.685482E+02
4.770359E+02		-1.595709E+02		-3.174650E+02
4.585239E+02		-1.197883E+02		-3.387356E+02
1.253077E+02		-2.961599E+02		1.708522E+02
-4.721090E+02		-2.466067E+02		7.187158E+02
7.493234E+02		-2.543416E+02		-4.949818E+02
1.363737E+02		-3.964740E+02		2.601003E+02
1.301796E+02		-4.518378E+02		3.216582E+02
-5.309996E+02		3.629397E+02		1.680599E+02
-2.749238E+02		1.849652E+02		8.995865E+01
-2.979257E+02		1.092997E+02		1.886260E+02
-3.159850E+02		1.086740E+02		2.073110E+02
-4.104984E+02		4.003911E+02		1.010721E+01
-4.883840E+02		4.360807E+02		5.230325E+01
-4.517328E+02		2.120664E+02		2.396664E+02
-4.780209E+02		1.792693E+02		2.987516E+02
7.484382E+02		-2.003489E+02		-5.480893E+02
-2.870561E+02		8.008556E+02		-5.137995E+02
-5.216084E+02		8.514977E+02		-3.298893E+02
-6.458790E+01		6.146970E+02		-5.501091E+02
3.920586E+02		-3.303982E+02		-6.166033E+01
-1.896766E+02		-7.755705E+01		2.672336E+02
-2.935475E+02		5.988163E+02		-3.052688E+02
1.371659E+02		-3.733452E+02		2.361792E+02
4.914380E+02		-3.142654E+02		-1.771726E+02
-1.179983E+02		1.661612E+02		-4.816290E+01
-1.958317E+02		2.134978E+02		-1.766617E+01
-2.386925E+02		2.214000E+02		1.729252E+01
7.504334E+02		-2.278210E+02		-5.226125E+02
7.174589E+02		-9.932079E+01		-6.181381E+02
6.371899E+02		-7.157591E+00		-6.300323E+02
7.190953E+02		-3.254043E+02		-3.936910E+02
6.658107E+02		-3.489844E+02		-3.168262E+02
-1.527200E+02		4.183062E+02		-2.655862E+02
-2.244589E+01		-3.399735E+02		3.624194E+02
-6.093415E+01		-3.076162E+02		3.685503E+02
1.043890E+02		-5.262118E+02		4.218227E+02
6.884746E+01		-5.500458E+02		4.811984E+02
-4.618346E+02		1.927862E+02		2.690484E+02
1.308461E+02		-2.564504E+02		1.256042E+02
-1.666800E+02		3.913890E+02		-2.247090E+02
-3.654846E+02		3.721459E+02		-6.661233E+00
6.130847E+01		-1.026419E+02		4.133339E+01
-1.535643E+01		4.794368E+02		-4.640803E+02
-1.004507E+01		5.201267E+02		-5.100817E+02
-4.499911E+02		2.560082E+02		1.939829E+02
-4.653472E+02		2.962842E+02		1.690630E+02
-3.185899E+02		2.671777E+02		5.141216E+01
-3.560023E+02		3.466712E+02		9.331091E+00
-3.874647E+02		5.968567E+02		-2.093919E+02
-4.106277E+02		5.351048E+02		-1.244771E+02
1.356019E+02		-2.117741E+02		7.617218E+01
3.607717E+02		1.461742E+02		-5.069459E+02
-2.195337E+02		2.362610E+01		1.959076E+02
3.647091E+02		1.811124E+01		-3.828204E+02
-4.941952E+02		-1.256234E+02		6.198185E+02
-4.786428E+02		-4.156203E+01		5.202049E+02
-4.950232E+02		-1.516501E+02		6.466733E+02
-4.839838E+02		-2.215338E+02		7.055176E+02
-4.499273E+02		1.276707E+01		4.371603E+02
-4.721658E+02		-2.302871E+01		4.951945E+02
1.111536E+02		-2.684820E+02		1.573285E+02
1.362095E+02		-3.477986E+02		2.115890E+02
-2.759310E+02		1.440086E+02		1.319224E+02
-3.569109E+02		3.931183E+02		-3.620743E+01
-2.463803E+02		4.152979E+02		-1.689177E+02
-1.590747E+02		7.103250E+02		-5.512504E+02
-6.699093E+01		1.148618E+02		-4.787084E+01
4.331473E+01		-8.159797E+01		3.828324E+01
-4.557176E+01		8.145794E+01		-3.588618E+01
1.140688E+02		-1.590876E+02		4.501879E+01
-1.535661E+02		1.920700E+02		-3.850382E+01
-8.911515E+01		1.399036E+02		-5.078849E+01
7.433382E+02		-1.711439E+02		-5.721943E+02
7.445262E+02		-2.798523E+02		-4.646739E+02
3.658317E+02		-3.161317E+02		-4.970007E+01
1.222217E+02		-4.893902E+02		3.671685E+02
-3.267579E+02		6.122399E+02		-2.854821E+02
4.067002E+00		6.858940E+01		-7.265641E+01
-4.917436E+02		-1.023797E+02		5.941232E+02
-4.838804E+02		-6.080259E+01		5.446830E+02
-3.587550E+02		8.357918E+02		-4.770368E+02
5.904032E+02		1.748449E+01		-6.078877E+02
6.870711E+02		-5.291013E+01		-6.341609E+02
-4.333723E+02		1.197681E+02		3.136042E+02
-1.886895E+02		7.344693E+02		-5.457798E+02
-2.366782E+02		-7.205607E+01		3.087343E+02
6.321736E+02		-3.458514E+02		-2.863222E+02
6.957066E+02		-3.415512E+02		-3.541554E+02
4.708727E+02		2.483049E+02		-7.191776E+02
2.557358E+02		5.607609E+02		-8.164967E+02
4.147082E+01		-2.321058E+02		1.906350E+02
-3.838930E+02		8.454056E+02		-4.615126E+02
-4.546126E+02		6.220033E+02		-1.673906E+02
-3.962723E+01		5.807350E+02		-5.411077E+02
-4.993392E+02		3.384942E+02		1.608450E+02
-4.360904E+02		-2.962314E+02		7.323218E+02
-2.404621E+02		4.804034E+01		1.924218E+02
-2.840690E+02		1.231441E+02		1.609249E+02
-1.899351E+01		5.442920E+02		-5.252985E+02
-1.432829E+02		3.816862E+02		-2.384033E+02
7.348441E+02		-3.041837E+02		-4.306604E+02
3.399363E+02		-2.976362E+02		-4.230012E+01
7.340318E+02		-1.382717E+02		-5.957602E+02
-2.477731E+02		7.767730E+02		-5.289999E+02
3.265544E+02		6.137684E+01		-3.879313E+02
4.016936E+02		-2.916662E+01		-3.725269E+02
-1.101536E+02		6.652003E+02		-5.550467E+02
3.943364E+02		1.578466E+02		-5.521830E+02
-5.455467E+02		7.376423E+02		-1.920956E+02
-1.967616E+01		-1.451492E+02		1.648254E+02
-2.108370E+02		-7.783764E+01		2.886746E+02
4.653379E+02		3.300225E+02		-7.953605E+02
-2.177613E+02		7.562097E+02		-5.384484E+02
2.665722E+02		1.336772E+02		-4.002494E+02
4.525725E+02		-3.406882E+02		-1.118843E+02
1.338777E+02		-4.239596E+02		2.900819E+02
-2.877467E+02		2.248656E+02		6.288110E+01
-4.474998E+02		8.606454E+02		-4.131456E+02
-5.318776E+02		7.085827E+02		-1.767052E+02
3.289162E+02		1.396716E+02		-4.685878E+02
-3.333268E+02		8.248847E+02		-4.915579E+02
9.369979E+01		-1.311784E+02		3.747857E+01
4.946395E+02		-2.117827E+02		-2.828568E+02
1.271567E+02		-4.687084E+02		3.415517E+02
-1.316436E+02		-1.631085E+02		2.947521E+02
-4.499426E+02		4.221484E+02		2.779424E+01
4.530181E+01		-1.745726E+02		1.292707E+02
4.542510E+02		2.067766E+02		-6.610276E+02
-3.082191E+02		4.192116E+02		-1.109925E+02
-2.005122E+02		-1.898919E+00		2.024112E+02
-5.547588E+02		8.057332E+02		-2.509744E+02
-5.138231E+02		6.803143E+02		-1.664912E+02
3.015723E+02		-2.529802E+02		-4.859207E+01
-7.623910E+00		-1.738214E+02		1.814453E+02
-6.718504E+00		4.968912E+02		-4.901727E+02
-3.695019E+02		9.547414E+01		2.740277E+02
-4.419697E+02		5.055196E+01		3.914178E+02
2.342754E+02		5.480239E+02		-7.822993E+02
4.733217E+02		2.871710E+02		-7.604927E+02
1.403278E+02		-2.350548E+02		9.472698E+01
-3.392010E+02		3.044875E+02		3.471351E+01
4.494653E+02		3.670313E+02		-8.164967E+02
-2.058338E+02		4.044345E+02		-1.986007E+02
8.899148E+01		-5.406672E+02		4.516757E+02
1.150157E+02		-5.087855E+02		3.937698E+02
-3.428317E+02		4.076570E+02		-6.482530E+01
-4.521542E+02		7.981961E+01		3.723346E+02
-2.734322E+02		8.051852E+01		1.929137E+02
1.160812E+01		-2.020829E+02		1.904748E+02
-4.141951E+02		6.041500E+02		-1.899549E+02
-4.862352E+02		6.481909E+02		-1.619557E+02
-4.159818E+02		8.548587E+02		-4.388769E+02
5.513313E+01		-1.604795E+02		1.053464E+02
1.305481E+02		-1.884219E+02		5.787378E+01
-5.433256E+02		8.328940E+02		-2.895684E+02
-1.516087E+02		-1.072710E+02		2.588797E+02
-2.772227E+02		4.196973E+02		-1.424746E+02
5.006983E+02		-2.425448E+02		-2.581535E+02
-3.971731E+02		1.149798E+02		2.821933E+02
-5.550024E+02		7.733285E+02		-2.183261E+02
-1.797467E+02		-3.715215E+01		2.168988E+02
-2.530137E+02		2.101992E+02		4.281450E+01
1.328585E+02		-3.234270E+02		1.905685E+02
-1.342206E+02		6.883060E+02		-5.540854E+02
4.128159E+02		1.676931E+02		-5.805090E+02
-8.700697E+01		6.408893E+02		-5.538823E+02
4.752617E+02		-3.316108E+02		-1.436509E+02
4.641592E+02		2.261580E+02		-6.903171E+02
4.240350E+02		-3.401464E+02		-8.388857E+01
6.629700E+02		-2.796422E+01		-6.350058E+02
-3.545614E+02		1.059509E+02		2.486106E+02
9.030319E+01		-2.593527E+02		1.690496E+02
-4.483612E+02		2.323567E+02		2.160045E+02
-4.500947E+02		1.043530E+02		3.457417E+02
6.073937E+01		-1.433564E+02		8.261703E+01
LINES 217 651
2		0		29
2		1		31
2		2		73
2		3		36
2		4		189
2		5		94
2		6		129
2		7		184
2		8		50
2		9		137
2		10		161
2		11		85
2		12		59
2		13		187
2		14		64
2		15		66
2		16		201
2		17		84
2		18		178
2		19		213
2		20		133
2		21		138
2		22		86
2		23		88
2		24		213
2		25		161
2		26		207
2		26		212
2		26		72
2		27		179
2		27		38
2		28		176
2		28		207
2		29		176
2		30		110
2		30		31
2		31		188
2		32		100
2		32		101
2		33		100
2		33		128
2		34		168
2		34		60
2		35		101
2		35		36
2		37		165
2		37		171
2		38		216
2		39		157
2		39		105
2		40		75
2		40		46
2		41		157
2		41		45
2		42		156
2		42		165
2		43		174
2		43		52
2		44		169
2		44		69
2		45		53
2		46		209
2		47		130
2		47		131
2		48		108
2		48		109
2		49		147
2		49		55
2		50		147
2		51		110
2		51		111
2		52		53
2		54		214
2		54		112
2		55		109
2		56		125
2		56		79
2		57		167
2		57		74
2		58		167
2		58		175
2		59		146
2		60		114
2		61		62
2		61		149
2		62		199
2		62		222
2		63		92
2		63		177
2		64		177
2		65		89
2		65		224
2		66		89
2		67		124
2		67		79
2		68		172
2		68		155
2		69		206
2		70		145
2		70		217
2		71		220
2		71		126
2		72		162
2		73		128
2		74		113
2		75		218
2		76		122
2		76		123
2		77		122
2		77		78
2		78		213
2		80		134
2		80		154
2		81		133
2		81		221
2		82		139
2		82		152
2		83		139
2		83		138
2		84		151
2		85		86
2		87		195
2		87		196
2		88		195
2		90		191
2		90		112
2		91		194
2		91		151
2		92		99
2		92		115
2		93		173
2		93		119
2		93		226
2		94		186
2		95		150
2		95		186
2		96		224
2		96		97
2		97		146
2		98		168
2		98		192
2		99		192
2		102		205
2		102		191
2		103		159
2		103		171
2		104		181
2		104		148
2		105		156
2		106		108
2		106		130
2		107		111
2		107		131
2		112		223
2		113		214
2		114		149
2		115		197
2		116		194
2		116		208
2		117		136
2		117		215
2		118		123
2		118		120
2		121		205
2		121		173
2		124		154
2		125		152
2		126		153
2		127		196
2		127		175
2		132		172
2		132		143
2		134		221
2		135		225
2		135		210
2		136		164
2		137		162
2		140		190
2		140		219
2		141		189
2		142		223
2		142		200
2		143		203
2		144		201
2		144		202
2		145		150
2		148		199
2		153		184
2		155		164
2		158		215
2		158		217
2		159		216
2		160		211
2		160		170
2		161		185
2		163		190
2		163		193
2		166		220
2		166		218
2		168		213
2		169		203
2		170		183
2		174		209
2		178		204
2		179		219
2		180		208
2		180		197
2		181		212
2		182		206
2		182		211
2		183		202
2		185		200
2		187		222
2		187		210
2		188		198
2		198		225
2		204		226
POINT_DATA 227
scalars NodeType integer
LOOKUP_TABLE default
7
7
7
7
7
7
7
7
7
7
7
7
7
7
7
7
7
7
7
7
7
7
7
7
7
7
0
0
0
0
0
0
0
0
0
0
0
0
0
0
0
0
0
0
0
0
0
0
0
0
0
0
0
0
0
0
0
0
0
0
0
0
0
0
0
0
0
0
0
0
0
0
0
0
0
0
0
0
0
0
0
0
0
0
0
0
0
0
0
0
0
0
0
0
0
0
0
0
0
0
0
0
0
0
0
0
0
0
0
0
0
0
0
0
0
0
0
0
0
9
9
0
0
0
0
0
0
0
0
9
0
0
0
0
0
0
0
0
0
0
0
8
0
0
0
0
0
0
0
0
0
0
0
0
0
0
0
0
0
0
0
0
0
0
0
0
0
0
0
0
0
0
0
0
0
0
0
0
0
0
0
0
0
0
0
0
0
0
0
0
0
0
0
8
0
0
0
0
0
0
0
0
0
0
0
0
0
0
0
0
0
0
0
0
0
0
0
0
0
0
0
0
0
0
0
0
0
CELL_DATA 217
SCALARS SlipSystem integer
LOOKUP_TABLE default
3
3
3
3
1
1
1
1
2
2
2
2
2
2
2
2
1
1
3
3
2
2
2
2
1
1
3
1
2
1
1
3
3
3
2
2
1
3
3
3
3
2
2
3
3
1
1
1
1
1
1
1
1
1
1
1
1
1
1
1
1
1
2
2
2
2
2
2
2
2
2
1
2
2
2
2
2
2
2
2
2
2
2
2
2
1
3
2
2
2
2
2
2
2
2
1
1
1
1
1
1
1
2
3
2
1
3
3
3
3
3
2
2
2
2
2
2
2
2
1
2
2
2
2
1
1
1
1
3
1
1
13
3
1
1
1
2
2
2
3
3
3
1
1
1
1
1
1
1
2
2
2
2
3
2
2
1
1
1
1
1
3
3
1
1
2
2
1
2
2
1
1
2
1
1
1
2
1
1
1
3
3
1
1
1
1
1
1
1
1
1
1
1
1
3
1
1
1
1
1
1
1
1
3
1
1
1
1
1
1
1
3
3
1
1
1
3
