# vtk DataFile Version 1.0
dislocation microstructure
ASCII
DATASET POLYDATA
POINTS 266 float
-1.407136E+02		-2.213016E+02		3.620151E+02
-4.069171E+02		1.959506E+01		3.873221E+02
-2.678171E+02		5.735064E+02		-3.056893E+02
-3.585793E+02		4.159045E+02		-5.732522E+01
2.435975E+02		5.088909E+02		-7.524885E+02
-3.645297E+01		4.790810E+02		-4.426281E+02
1.137360E+01		4.804267E+01		-5.941627E+01
2.977420E+02		-2.208350E+02		-7.690702E+01
-3.705953E+02		-3.364613E+02		7.070566E+02
-2.633774E+02		-5.962946E+01		3.230069E+02
-5.059046E+01		-1.177741E+02		1.683646E+02
-3.709113E+00		-3.770962E+02		3.808053E+02
-5.645235E+02		3.793574E+02		1.851661E+02
-3.703694E+02		9.044315E+01		2.799262E+02
-5.304416E+02		4.354699E+02		9.497178E+01
-5.136564E+02		1.737037E+02		3.399526E+02
-4.002894E+02		6.227393E+02		-2.224499E+02
-1.296146E+02		4.379697E+02		-3.083551E+02
3.132033E+01		-1.863970E+02		1.550767E+02
-2.594066E+02		2.052232E+02		5.418340E+01
5.559540E+02		2.224913E+01		-5.782031E+02
6.021915E+02		-3.324134E+02		-2.697781E+02
-9.943729E+01		-2.899623E+02		3.893996E+02
3.188077E+01		-5.505567E+02		5.186760E+02
-2.457631E+02		2.346175E+02		1.114560E+01
-1.949524E+01		-1.452330E+02		1.647282E+02
-9.062153E+01		-1.507874E+02		2.414089E+02
6.161210E+02		3.830004E+01		-6.544211E+02
-9.102916E+01		-1.541313E+02		2.451605E+02
-1.090133E+02		-2.093042E+02		3.183175E+02
-1.857637E+02		1.481588E+02		3.760488E+01
-4.473155E+02		3.133852E+00		4.441817E+02
1.366709E+02		-3.583790E+02		2.217080E+02
-3.681163E+02		6.272005E+02		-2.590842E+02
-3.593135E+02		2.246236E+02		1.346899E+02
-2.833746E+02		5.704651E+02		-2.870905E+02
-4.110989E+02		2.285331E+02		1.825658E+02
7.500579E+02		-5.560379E+01		-6.944541E+02
-4.960880E+02		4.868577E+02		9.230321E+00
1.320281E+02		5.865709E+02		-7.185990E+02
-1.213655E+02		-1.424237E+02		2.637892E+02
5.827767E+02		-5.069521E+01		-5.320815E+02
-5.669699E+01		-1.104099E+02		1.671069E+02
6.447659E+02		-2.194631E+02		-4.253028E+02
2.227495E+02		-1.345663E+02		-8.818324E+01
5.923098E+02		-7.852543E+01		-5.137843E+02
6.433162E+02		1.240595E+02		-7.673757E+02
-5.589730E+02		-3.417694E+01		5.931499E+02
-5.616300E+02		-1.599051E+02		7.215351E+02
-4.807700E+02		-2.898113E+02		7.705814E+02
-4.096184E+02		-3.309017E+02		7.405201E+02
-5.099185E+02		2.025014E+02		3.074171E+02
6.316304E+02		-1.792727E+02		-4.523576E+02
6.110509E+02		-1.249889E+02		-4.860620E+02
-3.019328E+02		9.606294E+02		-6.586966E+02
-5.140744E+02		-2.561246E+02		7.701990E+02
8.224851E+02		-3.008143E+02		-5.216708E+02
2.132818E+02		-4.370073E+02		2.237255E+02
2.021611E+02		-4.994007E+02		2.972396E+02
-5.305923E+02		3.687927E+02		1.617997E+02
-3.834266E+02		5.734055E+02		-1.899789E+02
1.726349E+01		4.184237E+02		-4.356871E+02
-2.381385E+01		4.564635E+02		-4.326496E+02
-5.268722E+02		5.391998E+02		-1.232764E+01
-4.688507E+02		4.280710E+02		4.077967E+01
-3.871500E+02		2.093609E+02		1.777891E+02
-4.873731E+02		4.608156E+02		2.655748E+01
8.278509E+02		-2.334096E+02		-5.944413E+02
-2.691666E+02		9.405571E+02		-6.713906E+02
-4.401441E+02		3.790896E+02		6.105449E+01
4.598789E+01		6.543783E+02		-7.003662E+02
3.847606E+02		-4.467411E+02		6.198048E+01
-1.745950E+02		-1.245637E+02		2.991588E+02
-2.886156E+02		6.086252E+02		-3.200095E+02
2.104672E+02		-4.057049E+02		1.952377E+02
6.467684E+02		-4.520298E+02		-1.947386E+02
-1.006561E+02		1.933194E+02		-9.266330E+01
-2.048351E+02		2.443958E+02		-3.956076E+01
6.587593E+02		-2.843885E+02		-3.743708E+02
8.279734E+02		-2.684633E+02		-5.595101E+02
7.776108E+02		-9.233111E+01		-6.852797E+02
6.386262E+02		3.210903E+01		-6.707352E+02
7.646866E+02		-3.771019E+02		-3.875846E+02
6.863845E+02		-3.939601E+02		-2.924243E+02
-1.786084E+02		5.180921E+02		-3.394837E+02
-1.958214E+01		-3.403885E+02		3.599707E+02
-5.999250E+01		-3.066632E+02		3.666557E+02
1.386246E+02		-5.653315E+02		4.267069E+02
7.581888E+01		-5.689068E+02		4.930880E+02
-4.775192E+02		2.318487E+02		2.456706E+02
2.512567E+02		-4.010959E+02		1.498393E+02
-2.217321E+02		5.469913E+02		-3.252592E+02
1.004033E+02		5.594600E+02		-6.598633E+02
4.351870E+01		-8.158904E+01		3.807034E+01
-5.804706E+00		4.352872E+02		-4.294825E+02
1.248859E+02		4.647271E+02		-5.896130E+02
-4.317480E+02		2.536823E+02		1.780657E+02
-4.467838E+02		2.979743E+02		1.488095E+02
-3.728009E+02		2.559095E+02		1.168914E+02
-4.244395E+02		3.504635E+02		7.397594E+01
-4.985111E+02		2.166930E+02		2.818181E+02
1.788287E+02		5.306300E+02		-7.094587E+02
-5.018764E+02		4.590706E+02		4.280578E+01
-3.553673E+02		1.011880E+02		2.541793E+02
-1.195670E+02		5.791169E+01		6.165535E+01
1.139367E+02		-3.783093E+01		-7.610579E+01
-5.686742E+02		-8.597238E+01		6.546466E+02
-5.356068E+02		4.585668E+00		5.310212E+02
-5.682389E+02		-1.189862E+02		6.872250E+02
-5.404356E+02		-2.159691E+02		7.564048E+02
2.075035E+02		-4.004372E+02		1.929337E+02
-5.160553E+02		1.722526E+01		4.988301E+02
1.703174E+02		-3.775569E+02		2.072395E+02
1.212932E+02		4.942111E+02		-6.155043E+02
-5.831273E+02		5.964992E+02		-1.337185E+01
1.122909E+02		6.792836E+02		-7.915745E+02
-3.083866E+02		5.778734E+02		-2.694867E+02
-9.241509E+01		8.082474E+02		-7.158323E+02
-4.990893E+01		1.157992E+02		-6.589030E+01
-4.138232E+02		5.345287E+02		-1.207056E+02
-4.346077E+01		8.159165E+01		-3.813088E+01
1.986021E+02		-1.118360E+02		-8.676616E+01
-1.488381E+02		2.301139E+02		-8.127574E+01
-6.798048E+01		1.524525E+02		-8.447197E+01
8.216788E+02		-1.941662E+02		-6.275127E+02
8.108273E+02		-3.304640E+02		-4.803633E+02
3.296056E+02		-4.147655E+02		8.515996E+01
1.798263E+02		-5.372093E+02		3.573829E+02
-3.332833E+02		6.369577E+02		-3.036744E+02
3.636325E+00		6.882236E+01		-7.245868E+01
-5.653617E+02		-5.826926E+01		6.236310E+02
-5.493359E+02		-1.311494E+01		5.624508E+02
-3.617779E+02		9.989547E+02		-6.371768E+02
5.904118E+02		2.475424E+01		-6.151660E+02
7.180559E+02		-2.294381E+01		-6.951120E+02
4.210656E+02		-4.654445E+02		4.437882E+01
-1.329670E+02		8.433462E+02		-7.103792E+02
-2.400454E+02		-8.691737E+01		3.269628E+02
6.582409E+02		-3.904879E+02		-2.677530E+02
7.282112E+02		-3.902027E+02		-3.380085E+02
6.466322E+02		1.437618E+02		-7.903940E+02
1.185152E+02		6.979815E+02		-8.164967E+02
4.500678E+01		-2.902374E+02		2.452306E+02
1.291990E+01		-2.534228E+02		2.405029E+02
1.073630E+02		4.109923E+02		-5.183553E+02
-5.038533E+02		5.130032E+02		-9.149952E+00
8.341258E+01		5.943907E+02		-6.778033E+02
-4.933764E+02		3.463037E+02		1.470727E+02
5.599536E+01		-1.189981E+02		6.300279E+01
-4.445682E+02		-3.151065E+02		7.596747E+02
-1.515394E+02		1.028906E+02		4.864876E+01
-1.387298E+02		4.745041E+02		-3.357742E+02
1.139825E+02		5.230644E+02		-6.370469E+02
-3.560454E+02		1.776129E+02		1.784325E+02
7.917697E+02		-3.567212E+02		-4.350485E+02
6.772718E+01		3.990069E+02		-4.667341E+02
8.071302E+02		-1.486118E+02		-6.585184E+02
-5.204093E+02		4.510958E+02		6.931353E+01
-2.166749E+02		9.062677E+02		-6.895928E+02
4.953099E+02		-4.915936E+02		-3.716378E+00
5.780777E+02		-3.298202E+01		-5.450957E+02
-2.175832E+01		7.379282E+02		-7.161699E+02
5.739929E+02		-9.083047E+00		-5.649099E+02
-6.835026E+02		7.062910E+02		-2.278843E+01
-2.767237E+01		-1.374466E+02		1.651189E+02
-2.061542E+02		-1.095388E+02		3.156930E+02
-2.289881E+02		2.370057E+02		-8.017645E+00
-1.740088E+02		8.756786E+02		-7.016697E+02
-1.461371E+02		-1.349382E+02		2.810753E+02
5.325419E+02		-4.971324E+02		-3.540949E+01
2.102933E+02		-4.696589E+02		2.593656E+02
-4.003363E+02		4.576908E+02		-5.735450E+01
6.598693E+01		6.243239E+02		-6.903109E+02
-6.502150E+02		6.700850E+02		-1.986999E+01
2.297764E+02		-4.017124E+02		1.719360E+02
-3.321565E+02		9.791973E+02		-6.470408E+02
1.440159E+02		-6.247359E+01		-8.154232E+01
6.550000E+02		-2.604090E+02		-3.945910E+02
1.933716E+02		-5.179998E+02		3.246282E+02
-9.541657E+01		-1.826048E+02		2.780213E+02
-4.688460E+02		3.248172E+02		1.440288E+02
-3.368759E+02		5.860501E+02		-2.491742E+02
-4.187266E+02		5.046708E+02		-8.594417E+01
4.523428E+01		-1.748891E+02		1.296549E+02
-3.469766E+02		1.561275E+02		1.908491E+02
6.282960E+02		6.712816E+01		-6.954242E+02
6.573593E+02		-3.357784E+02		-3.215809E+02
-3.538494E+02		6.362103E+02		-2.823610E+02
-9.117247E+01		1.077182E+01		8.040065E+01
-6.956033E+02		7.186104E+02		-2.300712E+01
-6.110727E+02		6.263232E+02		-1.525055E+01
2.556033E+02		-1.653596E+02		-9.024379E+01
6.505478E+02		1.659488E+02		-8.164967E+02
-2.772412E+01		-1.693328E+02		1.970569E+02
9.123477E+01		4.000077E+02		-4.912424E+02
-3.448865E+02		1.248803E+02		2.200063E+02
7.527422E+01		-1.024471E+01		-6.502951E+01
-4.922249E+02		1.827581E+01		4.739491E+02
1.527561E+02		5.571962E+02		-7.099523E+02
-5.278952E+02		5.371107E+01		4.741841E+02
-4.033728E+02		5.527046E+02		-1.493318E+02
-3.980348E+02		3.015388E+02		9.649596E+01
7.080259E+02		-3.932202E+02		-3.148056E+02
-2.567562E+02		5.621677E+02		-3.054115E+02
1.103329E+02		-5.711915E+02		4.608587E+02
1.616696E+02		-5.534962E+02		3.918266E+02
-4.605053E+02		2.396154E+02		2.208899E+02
1.101323E+02		-3.419539E+02		2.318217E+02
-5.538305E+02		9.433037E+01		4.595001E+02
2.113748E+02		5.087806E+02		-7.201554E+02
-1.451679E+01		-2.082963E+02		2.228131E+02
-3.744714E+02		6.137227E+02		-2.392512E+02
-5.556066E+02		5.683383E+02		-1.273164E+01
-3.910726E+02		1.023141E+03		-6.320685E+02
5.316933E+01		-1.589986E+02		1.058293E+02
6.336942E+02		8.521219E+01		-7.189064E+02
-3.562678E+02		1.929305E+02		1.633373E+02
-7.463004E+01		-2.395989E+01		9.858993E+01
-1.242466E+02		2.129472E+02		-8.870063E+01
6.606935E+02		-3.079241E+02		-3.527694E+02
-3.107895E+02		6.274605E+02		-3.166710E+02
-6.233147E+01		-5.933641E+01		1.216679E+02
-2.378555E+02		2.184445E+02		1.941096E+01
-3.820011E+02		4.340717E+02		-5.207064E+01
-4.370856E+02		2.469925E+02		1.900931E+02
-5.641475E+01		7.740484E+02		-7.176337E+02
-5.716223E+01		-8.553518E+01		1.426974E+02
1.248516E+01		6.983682E+02		-7.108533E+02
-4.130578E+02		4.829054E+02		-6.984751E+01
6.004020E+02		-4.878474E+02		-1.125545E+02
6.390766E+02		1.032914E+02		-7.423679E+02
4.569891E+02		-4.803385E+02		2.334944E+01
6.783447E+02		8.364446E+00		-6.867092E+02
-4.215256E+02		7.223084E+00		4.143025E+02
7.963906E+01		-3.204108E+02		2.407717E+02
7.471330E+02		-3.848228E+02		-3.623101E+02
-5.642562E+02		1.886976E+02		3.755586E+02
5.666125E+01		-1.410024E+02		8.434115E+01
1.165575E+02		6.187807E+02		-7.353382E+02
5.683715E+02		-4.961159E+02		-7.225557E+01
3.561171E+02		-4.302345E+02		7.411745E+01
-5.704488E+02		1.384728E+02		4.319760E+02
6.264050E+02		-4.730977E+02		-1.533073E+02
4.165616E+01		4.050122E+02		-4.466683E+02
1.195883E+02		4.267011E+02		-5.462893E+02
-5.178767E+02		1.831537E+02		3.347230E+02
-4.539010E+02		4.030621E+02		5.083894E+01
-3.641049E+02		5.928353E+02		-2.287304E+02
-1.793173E+02		2.421246E+02		-6.280727E+01
-2.431345E+02		9.239478E+02		-6.808134E+02
6.423634E+02		-3.509069E+02		-2.914566E+02
2.785299E+02		-1.893376E+02		-8.919225E+01
5.690256E+02		1.384937E+01		-5.828749E+02
6.215470E+02		-1.519184E+02		-4.696285E+02
-5.400585E+02		1.938625E+02		3.461960E+02
1.721383E+02		-8.728633E+01		-8.485201E+01
1.082825E+02		6.593501E+02		-7.676326E+02
6.585824E+02		-4.281718E+02		-2.304106E+02
-5.531110E+02		-1.873029E+02		7.404139E+02
-6.500859E+01		-1.384463E+02		2.034549E+02
-2.136128E+02		1.861470E+02		2.746577E+01
-2.012572E+02		1.695628E+02		3.169441E+01
7.939105E+02		-1.203781E+02		-6.735324E+02
2.753357E+02		-3.943923E+02		1.190566E+02
3.088009E+02		-4.039958E+02		9.519498E+01
-5.728899E+02		1.664187E+02		4.064712E+02
LINES 257 771
2		0		29
2		1		233
2		2		73
2		3		223
2		4		209
2		5		62
2		6		129
2		7		251
2		8		50
2		9		137
2		10		164
2		11		85
2		12		59
2		13		103
2		14		157
2		15		245
2		16		211
2		17		151
2		18		183
2		19		222
2		20		252
2		21		250
2		22		86
2		23		88
2		24		222
2		25		164
2		26		28
2		26		259
2		26		40
2		27		185
2		27		133
2		27		81
2		28		179
2		29		179
2		30		150
2		30		261
2		31		233
2		31		197
2		32		207
2		32		112
2		33		187
2		33		211
2		34		98
2		34		216
2		35		203
2		35		116
2		36		224
2		36		65
2		37		134
2		37		80
2		38		66
2		38		145
2		39		238
2		39		198
2		40		168
2		41		160
2		41		45
2		42		259
2		42		226
2		43		177
2		43		52
2		44		121
2		44		191
2		45		53
2		46		230
2		46		140
2		47		130
2		47		131
2		48		108
2		48		258
2		49		149
2		49		55
2		50		149
2		51		245
2		51		100
2		52		253
2		53		253
2		54		175
2		54		68
2		55		109
2		56		125
2		56		79
2		57		170
2		57		74
2		58		170
2		58		178
2		59		147
2		60		247
2		60		200
2		61		243
2		61		94
2		62		94
2		63		212
2		63		145
2		64		246
2		64		66
2		65		153
2		66		102
2		67		124
2		67		79
2		68		249
2		69		99
2		69		246
2		70		227
2		70		172
2		71		135
2		71		240
2		72		165
2		72		168
2		73		220
2		74		110
2		75		257
2		75		242
2		76		123
2		76		218
2		77		166
2		77		248
2		78		219
2		78		177
2		80		262
2		81		232
2		82		154
2		82		235
2		83		138
2		83		202
2		84		151
2		84		91
2		85		86
2		87		204
2		87		205
2		88		204
2		89		100
2		89		206
2		90		263
2		90		174
2		91		203
2		92		152
2		92		146
2		93		148
2		95		244
2		95		113
2		96		97
2		96		224
2		97		180
2		98		201
2		99		201
2		101		209
2		101		198
2		102		157
2		103		195
2		104		188
2		104		150
2		105		176
2		105		196
2		106		108
2		106		130
2		107		111
2		107		131
2		109		258
2		110		112
2		110		174
2		111		197
2		113		152
2		114		212
2		114		190
2		115		256
2		115		141
2		116		181
2		117		136
2		117		225
2		118		123
2		118		120
2		119		200
2		119		182
2		121		255
2		122		248
2		122		218
2		124		156
2		125		154
2		126		240
2		126		264
2		127		205
2		127		178
2		128		187
2		128		220
2		132		175
2		132		213
2		133		252
2		134		232
2		135		231
2		136		167
2		137		165
2		138		250
2		138		257
2		139		202
2		139		235
2		140		192
2		142		234
2		142		143
2		143		210
2		144		244
2		144		194
2		146		172
2		147		180
2		148		237
2		153		184
2		153		216
2		155		243
2		155		194
2		156		262
2		158		167
2		158		249
2		159		231
2		159		169
2		160		162
2		161		225
2		161		227
2		162		252
2		163		173
2		163		189
2		164		193
2		166		222
2		169		239
2		171		223
2		171		228
2		173		190
2		176		255
2		181		247
2		182		228
2		183		214
2		184		195
2		185		215
2		186		219
2		186		250
2		188		217
2		191		251
2		193		210
2		197		199
2		199		208
2		206		224
2		207		234
2		208		241
2		211		247
2		214		237
2		215		230
2		217		221
2		221		226
2		222		260
2		229		239
2		229		242
2		236		254
2		236		265
2		238		256
2		241		265
2		245		254
2		260		261
2		263		264
POINT_DATA 266
scalars NodeType integer
LOOKUP_TABLE default
7
7
7
7
7
7
7
7
7
7
7
7
7
7
7
7
7
7
7
7
7
7
7
7
7
7
0
0
0
0
0
0
0
0
0
0
0
0
0
0
0
0
0
0
0
0
0
0
0
0
0
0
0
0
0
0
0
0
0
0
0
0
0
0
0
0
0
0
0
0
0
0
0
0
0
0
0
0
0
0
0
0
0
0
0
0
0
0
0
0
0
0
0
9
0
0
0
0
0
0
0
0
0
0
0
0
0
0
0
0
0
0
0
0
0
0
0
0
0
0
9
0
0
0
0
0
0
0
0
9
0
0
0
0
0
0
0
0
0
0
0
8
0
0
0
0
0
0
0
0
0
0
0
0
0
0
0
0
0
0
0
0
0
0
0
0
0
0
0
0
0
0
0
0
0
0
0
0
0
0
0
0
0
0
0
0
0
0
0
8
0
0
8
0
0
0
9
0
0
0
0
0
0
0
0
0
0
0
0
0
0
0
0
8
0
0
0
0
0
0
0
0
0
0
0
0
0
0
0
0
0
0
0
0
0
0
0
0
0
0
0
0
0
0
0
0
0
0
0
0
0
0
0
0
0
0
0
0
0
0
0
0
0
0
0
0
CELL_DATA 257
SCALARS SlipSystem integer
LOOKUP_TABLE default
3
3
3
3
1
1
1
1
2
2
2
2
2
2
2
2
1
1
3
3
2
2
2
2
1
1
3
1
2
1
3
2
3
3
1
1
3
3
3
3
3
3
3
3
1
1
1
1
2
2
1
1
1
1
2
1
1
1
1
1
1
1
1
1
1
1
2
2
2
2
2
2
2
3
3
1
1
1
1
2
2
2
2
2
2
2
2
3
3
1
1
1
1
1
3
3
1
2
2
2
1
3
3
1
1
1
1
2
2
3
2
1
1
3
3
3
3
1
1
2
2
2
2
2
2
1
1
2
2
2
2
3
3
1
1
1
1
1
3
1
1
2
2
2
3
3
1
1
2
2
1
1
1
1
2
2
2
2
2
3
1
2
1
1
1
1
1
1
1
1
3
3
3
3
1
3
3
2
2
1
1
2
2
3
3
1
1
3
2
1
1
2
3
1
2
2
1
3
3
3
1
1
1
2
3
2
3
1
1
2
1
1
1
1
1
1
1
1
1
1
3
3
1
3
3
1
1
1
3
3
2
1
1
1
1
1
3
1
1
3
3
1
2
3
1
1
1
1
1
1
1
1
1
1
1
1
1
