# vtk DataFile Version 1.0
dislocation microstructure
ASCII
DATASET POLYDATA
POINTS 264 float
-1.407136E+02		-2.213016E+02		3.620151E+02
-4.069171E+02		1.959506E+01		3.873221E+02
-2.678171E+02		5.735064E+02		-3.056893E+02
-3.585793E+02		4.159045E+02		-5.732522E+01
2.435975E+02		5.088909E+02		-7.524885E+02
-3.645297E+01		4.790810E+02		-4.426281E+02
1.137360E+01		4.804267E+01		-5.941627E+01
2.977420E+02		-2.208350E+02		-7.690702E+01
-3.705953E+02		-3.364613E+02		7.070566E+02
-2.633774E+02		-5.962946E+01		3.230069E+02
-5.059046E+01		-1.177741E+02		1.683646E+02
-3.709113E+00		-3.770962E+02		3.808053E+02
-5.645235E+02		3.793574E+02		1.851661E+02
-3.703694E+02		9.044315E+01		2.799262E+02
-5.304416E+02		4.354699E+02		9.497178E+01
-5.136564E+02		1.737037E+02		3.399526E+02
-4.002894E+02		6.227393E+02		-2.224499E+02
-1.296146E+02		4.379697E+02		-3.083551E+02
3.132033E+01		-1.863970E+02		1.550767E+02
-2.594066E+02		2.052232E+02		5.418340E+01
5.559540E+02		2.224913E+01		-5.782031E+02
6.021915E+02		-3.324134E+02		-2.697781E+02
-9.943729E+01		-2.899623E+02		3.893996E+02
3.188077E+01		-5.505567E+02		5.186760E+02
-2.457631E+02		2.346175E+02		1.114560E+01
-1.949524E+01		-1.452330E+02		1.647282E+02
-1.053365E+02		-1.275475E+02		2.328840E+02
5.648992E+02		7.859453E+01		-6.434938E+02
-1.041986E+02		-1.467658E+02		2.509644E+02
-1.144838E+02		-2.033834E+02		3.178672E+02
-2.175973E+02		1.314708E+02		8.612650E+01
-4.506860E+02		1.476393E+01		4.359221E+02
1.384304E+02		-3.385962E+02		2.001657E+02
-3.692672E+02		6.284199E+02		-2.591527E+02
-3.277138E+02		2.267352E+02		1.009787E+02
-4.358513E+02		5.008843E+02		-6.503295E+01
-2.987853E+02		1.970182E+02		1.017671E+02
7.384843E+02		-6.238148E+01		-6.761028E+02
5.479020E+02		5.797502E+01		-6.058770E+02
5.167765E+02		-1.812640E+00		-5.149638E+02
6.230539E+02		-3.774205E+02		-2.456334E+02
5.314662E+02		-4.223396E+01		-4.892322E+02
-8.774635E+01		-9.375197E+01		1.814983E+02
6.028550E+02		-2.097322E+02		-3.931229E+02
1.966167E+02		-1.593667E+02		-3.724990E+01
5.461380E+02		-7.401701E+01		-4.721210E+02
6.203068E+02		-3.344002E+02		-2.859066E+02
-5.423535E+02		-4.584753E+01		5.882010E+02
-5.438555E+02		-1.656323E+02		7.094878E+02
-4.764519E+02		-2.840179E+02		7.604697E+02
-4.106348E+02		-3.271848E+02		7.378196E+02
-4.913559E+02		2.372782E+01		4.676280E+02
5.895825E+02		-1.720477E+02		-4.175348E+02
5.683188E+02		-1.211272E+02		-4.471916E+02
-3.061290E+02		9.208523E+02		-6.147233E+02
-5.048737E+02		-2.522774E+02		7.571511E+02
8.033399E+02		-2.879544E+02		-5.153855E+02
1.944636E+02		-4.273460E+02		2.328824E+02
1.850415E+02		-4.873110E+02		3.022695E+02
-5.305683E+02		3.676856E+02		1.628827E+02
-3.616485E+02		5.396511E+02		-1.780025E+02
-2.669231E+02		1.699035E+02		9.701957E+01
-3.376265E+02		1.537077E+02		1.839188E+02
-5.059557E+02		5.686859E+02		-6.273024E+01
-4.956373E+02		4.557004E+02		3.993690E+01
-4.021252E+02		1.869106E+02		2.152146E+02
-4.446896E+02		4.465426E+02		-1.853014E+00
8.069968E+02		-2.244654E+02		-5.825314E+02
-2.747390E+02		9.030740E+02		-6.283350E+02
-4.181328E+02		3.792028E+02		3.893008E+01
1.482034E+01		6.435232E+02		-6.583435E+02
3.883935E+02		-4.118945E+02		2.350102E+01
-1.763131E+02		-1.131393E+02		2.894524E+02
-2.914747E+02		6.078509E+02		-3.163762E+02
1.927146E+02		-3.982286E+02		2.055140E+02
6.052780E+02		-4.140791E+02		-1.911990E+02
-1.050705E+02		1.880984E+02		-8.302789E+01
-2.010997E+02		2.371038E+02		-3.600413E+01
-2.424155E+02		2.225374E+02		1.987806E+01
8.076599E+02		-2.573021E+02		-5.503578E+02
7.626818E+02		-9.591708E+01		-6.667647E+02
6.385517E+02		1.705294E+01		-6.556046E+02
7.519351E+02		-3.620871E+02		-3.898480E+02
6.778193E+02		-3.757874E+02		-3.020319E+02
-1.858500E+02		5.017606E+02		-3.159107E+02
-2.005103E+01		-3.401646E+02		3.602156E+02
-6.021006E+01		-3.066970E+02		3.669070E+02
1.309874E+02		-5.552322E+02		4.242448E+02
7.476709E+01		-5.643394E+02		4.895723E+02
-4.605994E+02		2.089551E+02		2.516443E+02
2.212785E+02		-3.565006E+02		1.352221E+02
-2.218422E+02		5.201805E+02		-2.983383E+02
6.247310E+01		5.623233E+02		-6.247964E+02
4.376430E+01		-8.157733E+01		3.781303E+01
-1.331394E+00		4.429464E+02		-4.416150E+02
8.565733E+01		4.842110E+02		-5.698684E+02
-4.295981E+02		2.514203E+02		1.781778E+02
-4.499365E+02		2.982027E+02		1.517338E+02
-3.528067E+02		2.590994E+02		9.370727E+01
-4.052189E+02		3.509522E+02		5.426667E+01
-4.826358E+02		1.995191E+02		2.831167E+02
-4.403560E+02		5.260968E+02		-8.574079E+01
-3.992042E+02		5.218730E+02		-1.226687E+02
-3.591664E+02		1.040061E+02		2.551602E+02
-1.478406E+02		5.021991E+01		9.762072E+01
1.013219E+02		-6.795164E+01		-3.337022E+01
-5.500478E+02		-9.584934E+01		6.458971E+02
-5.245142E+02		-5.777653E+00		5.302918E+02
-5.496216E+02		-1.269208E+02		6.765424E+02
-5.269871E+02		-2.152121E+02		7.421991E+02
1.884984E+02		-3.631660E+02		1.746676E+02
-5.105535E+02		1.078888E+01		4.997646E+02
1.712795E+02		-3.563152E+02		1.850357E+02
-5.587215E+02		6.182309E+02		-5.950939E+01
-4.453601E+02		4.724415E+02		-2.708143E+01
-2.952076E+02		5.379182E+02		-2.427106E+02
-1.109665E+02		7.828363E+02		-6.718697E+02
-5.338359E+01		1.163609E+02		-6.297734E+01
-4.148890E+02		5.359212E+02		-1.210322E+02
-4.357956E+01		8.158624E+01		-3.800668E+01
1.758316E+02		-1.340885E+02		-4.174310E+01
-1.502570E+02		2.213368E+02		-7.107980E+01
-7.293708E+01		1.507452E+02		-7.780812E+01
8.010912E+02		-1.882044E+02		-6.128868E+02
7.934242E+02		-3.163511E+02		-4.770731E+02
3.401988E+02		-3.781446E+02		3.794576E+01
1.665005E+02		-5.248006E+02		3.583001E+02
-3.323535E+02		6.333807E+02		-3.010271E+02
3.743422E+00		6.876461E+01		-7.250803E+01
-5.474142E+02		-6.932645E+01		6.167407E+02
-5.348535E+02		-2.473188E+01		5.595854E+02
-3.703633E+02		9.535450E+02		-5.831817E+02
5.841169E+02		3.197736E+01		-6.160942E+02
7.108076E+02		-3.294463E+01		-6.778630E+02
4.198613E+02		-4.286811E+02		8.819788E+00
-1.484738E+02		8.149575E+02		-6.664837E+02
-2.380157E+02		-8.359415E+01		3.216099E+02
6.323243E+02		-3.621087E+02		-2.702156E+02
7.183536E+02		-3.745211E+02		-3.438325E+02
5.983517E+02		1.729688E+02		-7.713204E+02
1.554058E+02		6.610909E+02		-8.164967E+02
5.271554E+01		-2.813253E+02		2.286098E+02
2.219684E+01		-2.495354E+02		2.273385E+02
-4.023593E+02		9.700815E+02		-5.677222E+02
-4.742793E+02		5.444875E+02		-7.020819E+01
4.712349E+01		5.923988E+02		-6.395223E+02
-4.938505E+02		3.442602E+02		1.495903E+02
5.428077E+01		-1.190192E+02		6.473846E+01
-4.434984E+02		-3.097905E+02		7.532889E+02
-1.784326E+02		8.986978E+01		8.856280E+01
-1.486794E+02		4.708632E+02		-3.221838E+02
7.507883E+01		5.309297E+02		-6.060085E+02
2.728551E+02		-3.111180E+02		3.826287E+01
7.766297E+02		-3.418269E+02		-4.348028E+02
2.950618E+02		-3.362959E+02		4.123403E+01
7.876927E+02		-1.455832E+02		-6.421096E+02
-5.184942E+02		4.492708E+02		6.922344E+01
-2.263394E+02		8.726425E+02		-6.463031E+02
4.819625E+02		-4.498842E+02		-3.207825E+01
5.208457E+02		-1.577851E+01		-5.050672E+02
-4.656913E+01		7.192189E+02		-6.726498E+02
5.156402E+02		2.471815E+01		-5.403584E+02
-6.508216E+02		7.296378E+02		-7.881618E+01
-2.286078E+01		-1.421860E+02		1.650467E+02
-2.058502E+02		-1.016640E+02		3.075142E+02
-2.260967E+02		2.341508E+02		-8.054124E+00
-1.862559E+02		8.443487E+02		-6.580928E+02
-1.498550E+02		-1.205514E+02		2.704064E+02
5.125005E+02		-4.537295E+02		-5.877099E+01
1.918554E+02		-4.583035E+02		2.664481E+02
-2.532598E+02		1.731082E+02		8.015160E+01
3.178144E+01		6.180102E+02		-6.497916E+02
-6.191225E+02		6.897028E+02		-7.058024E+01
2.453517E+02		-3.292744E+02		8.392269E+01
-3.362614E+02		9.366697E+02		-6.004083E+02
1.286789E+02		-8.837885E+01		-4.030001E+01
6.132428E+02		-2.471616E+02		-3.660811E+02
1.778801E+02		-5.052994E+02		3.274194E+02
-1.056184E+02		-1.757952E+02		2.814137E+02
-4.707386E+02		3.232051E+02		1.475336E+02
-4.117383E+02		5.097841E+02		-9.804577E+01
-4.549500E+02		4.506402E+02		4.309786E+00
4.389772E+01		-1.735182E+02		1.296205E+02
-3.527387E+02		1.345994E+02		2.181392E+02
5.796773E+02		1.032533E+02		-6.829306E+02
6.221895E+02		-3.135924E+02		-3.085971E+02
-3.863157E+02		5.336248E+02		-1.473092E+02
-1.213012E+02		8.005475E+00		1.132958E+02
-6.671309E+02		7.470828E+02		-7.995198E+01
-5.832675E+02		6.453089E+02		-6.204142E+01
2.442913E+02		-2.113039E+02		-3.298740E+01
5.991959E+02		2.053930E+02		-8.045889E+02
-2.025752E+01		-1.717304E+02		1.919879E+02
6.758381E+01		4.307316E+02		-4.983154E+02
-3.515660E+02		1.274313E+02		2.241348E+02
7.997258E+01		-5.424425E+01		-2.572833E+01
-4.768981E+02		2.618341E+01		4.507147E+02
1.710196E+02		5.643020E+02		-7.353216E+02
-5.082093E+02		6.260886E+01		4.456004E+02
2.531155E+02		-2.986659E+02		4.555036E+01
-3.805328E+02		3.031702E+02		7.736257E+01
6.005167E+02		2.159800E+02		-8.164967E+02
-2.499605E+02		5.296617E+02		-2.797012E+02
1.057958E+02		-5.633632E+02		4.575675E+02
1.510314E+02		-5.418981E+02		3.908666E+02
-4.198761E+02		4.774072E+02		-5.753103E+01
1.134295E+02		-3.247644E+02		2.113349E+02
-5.263354E+02		9.353226E+01		4.328032E+02
2.096755E+02		5.221464E+02		-7.318219E+02
-5.762622E+00		-2.079673E+02		2.137300E+02
-3.804439E+02		6.094492E+02		-2.290053E+02
-5.336965E+02		5.932784E+02		-5.958192E+01
-4.271069E+02		9.871068E+02		-5.599998E+02
5.109073E+01		-1.575089E+02		1.064182E+02
2.163362E+02		-1.863896E+02		-2.994664E+01
-3.179273E+02		1.629961E+02		1.549312E+02
-1.068438E+02		-2.090927E+01		1.277530E+02
-3.369398E+02		5.407707E+02		-2.038310E+02
6.210583E+02		-2.905287E+02		-3.305297E+02
-3.760646E+02		1.616692E+02		2.143954E+02
6.109254E+02		2.742580E+01		-6.383512E+02
-9.543576E+01		-5.055609E+01		1.459919E+02
-2.411673E+02		2.077381E+02		3.342924E+01
-3.809732E+02		4.359068E+02		-5.493357E+01
-4.346209E+02		2.120815E+02		2.225393E+02
-7.810032E+01		7.518797E+02		-6.737794E+02
5.282637E+02		3.945556E+01		-5.677192E+02
-1.576559E+01		6.837340E+02		-6.679684E+02
-5.121325E+02		1.820373E+02		3.300951E+02
5.675617E+02		-4.444675E+02		-1.230943E+02
5.919529E+02		1.354708E+02		-7.274236E+02
4.497832E+02		-4.409435E+02		-8.839680E+00
6.748930E+02		-3.895270E+00		-6.709978E+02
-4.246623E+02		1.243854E+01		4.122237E+02
8.518048E+01		-3.068125E+02		2.216320E+02
-4.291182E+02		2.220516E+02		2.070666E+02
-3.876745E+02		5.610303E+02		-1.733558E+02
-5.405225E+02		1.669561E+02		3.735664E+02
5.442740E+01		-1.397740E+02		8.534665E+01
1.504429E+02		6.107950E+02		-7.612380E+02
5.416719E+02		-4.520486E+02		-8.962329E+01
3.641775E+02		-3.953866E+02		3.120906E+01
-5.397228E+02		1.298777E+02		4.098451E+02
5.883250E+02		-4.318308E+02		-1.564942E+02
3.593434E+01		4.268471E+02		-4.627815E+02
8.327025E+01		4.532609E+02		-5.365312E+02
-5.026445E+02		1.826679E+02		3.199766E+02
-4.289118E+02		4.046901E+02		2.422167E+01
-3.789827E+02		5.794798E+02		-2.004971E+02
-1.768592E+02		2.321062E+02		-5.524709E+01
6.184072E+02		-3.463719E+02		-2.720353E+02
2.711789E+02		-2.078675E+02		-6.331140E+01
-2.983222E+02		1.680337E+02		1.302885E+02
5.793192E+02		-1.466039E+02		-4.327152E+02
-3.997760E+02		5.472597E+02		-1.474837E+02
1.532015E+02		-1.103617E+02		-4.283987E+01
1.483973E+02		6.378492E+02		-7.862465E+02
6.148762E+02		-3.974043E+02		-2.174719E+02
-5.362990E+02		-1.901890E+02		7.264880E+02
-9.415530E+01		-1.126629E+02		2.068182E+02
-2.413677E+02		1.518627E+02		8.950492E+01
7.755477E+02		-1.207419E+02		-6.548058E+02
2.338293E+02		-3.433682E+02		1.095389E+02
3.173323E+02		-3.577056E+02		4.037327E+01
LINES 256 768
2		0		29
2		1		233
2		2		73
2		3		223
2		4		208
2		5		94
2		6		128
2		7		251
2		8		50
2		9		136
2		10		163
2		11		85
2		12		59
2		13		103
2		14		156
2		15		246
2		16		210
2		17		150
2		18		182
2		19		222
2		20		132
2		21		250
2		22		86
2		23		88
2		24		222
2		25		163
2		26		28
2		26		167
2		26		259
2		27		184
2		27		38
2		28		178
2		29		178
2		30		149
2		30		260
2		31		233
2		31		196
2		32		206
2		32		112
2		33		127
2		33		210
2		34		98
2		34		36
2		35		101
2		35		205
2		36		170
2		37		133
2		37		80
2		38		226
2		39		159
2		39		161
2		40		250
2		40		257
2		41		159
2		41		45
2		42		221
2		42		259
2		43		176
2		43		52
2		44		214
2		44		120
2		45		53
2		46		250
2		46		185
2		47		129
2		47		130
2		48		108
2		48		258
2		49		148
2		49		55
2		50		148
2		51		196
2		51		111
2		52		253
2		53		253
2		54		174
2		54		68
2		55		109
2		56		124
2		56		79
2		57		169
2		57		74
2		58		169
2		58		177
2		59		146
2		60		217
2		60		186
2		61		170
2		61		260
2		61		252
2		62		215
2		62		183
2		63		211
2		63		144
2		64		181
2		64		156
2		65		224
2		65		219
2		66		114
2		66		181
2		66		247
2		67		123
2		67		79
2		68		157
2		69		99
2		69		247
2		70		227
2		70		171
2		71		134
2		71		241
2		72		164
2		72		167
2		73		127
2		74		110
2		75		257
2		75		243
2		76		121
2		76		122
2		77		165
2		77		249
2		78		165
2		78		222
2		80		261
2		81		232
2		81		220
2		82		138
2		82		153
2		83		138
2		83		137
2		84		150
2		84		91
2		85		86
2		87		203
2		87		204
2		88		203
2		89		224
2		89		100
2		90		110
2		90		262
2		91		202
2		92		151
2		92		145
2		93		147
2		94		244
2		95		151
2		95		245
2		96		235
2		96		97
2		97		179
2		98		200
2		99		200
2		100		246
2		101		118
2		101		144
2		102		186
2		102		180
2		103		194
2		104		187
2		104		149
2		105		175
2		105		195
2		106		108
2		106		129
2		107		111
2		107		130
2		109		258
2		110		112
2		113		211
2		113		189
2		114		205
2		115		202
2		115		217
2		116		135
2		116		225
2		117		122
2		117		119
2		118		254
2		120		255
2		121		249
2		123		155
2		124		153
2		125		241
2		125		263
2		126		204
2		126		177
2		131		174
2		131		143
2		132		220
2		133		232
2		134		231
2		135		166
2		136		164
2		137		250
2		139		230
2		139		191
2		140		256
2		141		234
2		141		142
2		142		209
2		143		212
2		145		171
2		146		179
2		147		238
2		152		199
2		152		154
2		154		263
2		155		261
2		157		166
2		158		231
2		158		168
2		160		225
2		160		227
2		161		226
2		162		172
2		162		188
2		163		192
2		168		240
2		170		222
2		172		189
2		173		199
2		173		262
2		175		255
2		176		218
2		180		205
2		182		213
2		183		194
2		184		230
2		185		218
2		187		216
2		190		251
2		190		214
2		191		201
2		192		209
2		193		244
2		193		245
2		194		219
2		196		198
2		197		239
2		197		208
2		198		207
2		205		223
2		206		234
2		207		242
2		210		248
2		213		238
2		215		252
2		216		221
2		224		235
2		228		237
2		228		246
2		229		240
2		229		243
2		236		248
2		236		254
2		237		242
2		239		256
POINT_DATA 264
scalars NodeType integer
LOOKUP_TABLE default
7
7
7
7
7
7
7
7
7
7
7
7
7
7
7
7
7
7
7
7
7
7
7
7
7
7
0
0
0
0
0
0
0
0
0
0
0
0
0
0
0
0
0
0
0
0
0
0
0
0
0
0
0
0
0
0
0
0
0
0
0
0
0
0
0
0
0
0
0
0
0
0
0
0
0
0
0
0
0
0
0
0
0
0
0
0
0
0
0
0
0
0
0
9
0
0
0
0
0
0
0
0
0
0
0
0
0
0
0
0
0
0
0
0
0
0
0
0
0
9
0
0
0
0
0
0
0
0
9
0
0
0
0
0
0
0
0
0
0
0
8
0
0
0
0
0
0
0
0
0
0
0
0
0
0
0
0
0
0
0
0
0
0
0
0
0
0
0
0
0
0
0
0
0
0
0
0
0
0
0
0
0
0
0
0
0
0
0
8
0
0
0
0
0
0
9
0
0
0
0
0
8
0
0
0
0
0
0
0
0
0
0
8
0
0
0
0
0
0
0
0
0
0
0
0
0
0
0
0
0
0
0
0
0
0
0
0
0
0
0
0
0
0
0
0
0
0
0
0
0
0
0
0
0
0
0
0
0
0
0
0
0
0
0
CELL_DATA 256
SCALARS SlipSystem integer
LOOKUP_TABLE default
3
3
3
3
1
1
1
1
2
2
2
2
2
2
2
2
1
1
3
3
2
2
2
2
1
1
3
2
1
1
1
3
3
1
1
3
3
3
3
3
3
3
3
3
3
3
2
2
1
1
1
1
1
1
1
1
1
1
1
1
1
1
1
1
2
2
2
2
2
2
2
2
2
1
1
1
1
2
2
2
2
2
2
2
2
1
1
2
1
3
3
3
1
1
2
2
1
1
1
2
3
2
2
1
3
3
1
1
1
1
2
2
3
2
1
1
3
3
3
3
3
3
2
2
2
2
2
2
2
1
1
2
2
2
2
3
3
1
1
1
1
1
3
1
1
1
2
2
2
3
3
3
2
1
1
1
2
1
1
1
1
2
2
2
2
2
3
1
1
1
1
1
1
1
3
3
2
1
3
2
2
1
1
2
2
1
1
2
2
1
1
2
2
1
1
1
3
3
3
1
1
2
3
1
1
1
2
1
1
1
1
1
1
1
1
3
1
1
1
1
1
1
1
1
3
3
1
1
1
1
1
1
3
1
1
1
1
1
1
1
3
3
1
2
3
3
1
2
1
1
1
1
2
2
1
1
